LAMMPS data file via write_data, version 2 Aug 2023, timestep = 500000, units = metal

2400 atoms
3 atom types

-0.538066581 128.596733419 xlo xhi
-0.93195 73.62405 ylo yhi
-17.51565 17.51565 zlo zhi

Masses

1 78.95999999999999
2 78.95999999999999
3 195.09

Atoms # atomic

3 2 2.152246333 0 -1.2829815 0 0 0
17 3 12.84239660740726 -0.08139730536636593 -0.027111190243600793 0 0 0
9 2 8.612760678371593 0.0034560604456507836 -1.1385658454995717 0 0 0
77 3 12.909535036361525 3.679942361215927 -0.10601063583139655 0 0 0
15 2 15.099218306154517 -0.16935621574954302 -1.275224163575642 0 0 0
6 3 3.284115374171147 1.8823505989987672 -0.041802488527159946 0 0 0
4 2 5.485070034487844 1.8574948613103888 -1.2301063364656035 0 0 0
10 2 11.886062019984822 1.8331012617258335 -1.2537112520377367 0 0 0
63 2 2.152246333 3.7278 -1.2829815 0 0 0
69 2 8.577759679445526 3.746562468144226 -1.178383333546755 0 0 0
18 3 16.150492077472933 1.7319099617788956 -0.01879161761071884 0 0 0
75 2 15.147381367068766 3.652476296820315 -1.3552126987856954 0 0 0
123 2 2.152246333 7.4556 -1.2829815 0 0 0
64 2 5.345219282314981 5.643624122805269 -1.2811264728868865 0 0 0
66 3 3.2195648703692448 5.657692610855565 -0.02726140624594158 0 0 0
129 2 8.5092787949404 7.4776893267062015 -1.2002383204615912 0 0 0
137 3 12.904831970846415 7.433788037974213 -0.1388326798911634 0 0 0
70 2 11.76998769553539 5.630769658535298 -1.2774894637825924 0 0 0
184 2 5.38074025356912 13.023395425089392 -1.1665498421972733 0 0 0
135 2 15.099370406245539 7.39328746721499 -1.299263126115901 0 0 0
192 3 9.71223224902547 13.09216702390216 -0.16206376673221426 0 0 0
78 3 16.168641306467617 5.511637316780074 -0.017600882181022664 0 0 0
124 2 5.37846080018615 9.370849089069905 -1.2662391429805266 0 0 0
132 3 9.605204572986965 9.39926721743549 -0.01422681390787079 0 0 0
130 2 11.845106507825179 9.418735482561459 -1.2690705337203916 0 0 0
126 3 3.1878964725212087 9.374107574531294 -0.03617683928792501 0 0 0
183 2 2.152246333 11.1834 -1.2829815 0 0 0
190 2 11.849936607862443 13.126380515251634 -1.4067551208610027 0 0 0
189 2 8.500509793102038 11.153123309768455 -1.2838281841640529 0 0 0
197 3 12.948251527437108 11.262976690262457 -0.0009505480411932654 0 0 0
195 2 15.067265408780228 11.144176049929584 -1.2911128074824005 0 0 0
71 3 6.436302688970996 3.7768288435666473 -0.03049011724027776 0 0 0
72 3 9.6309635409181 5.61166841537473 -0.01046325265409364 0 0 0
186 3 3.2057236603807606 13.097120644051893 -0.008224569645473247 0 0 0
5 3 0 0 0 0 0 0
1 1 4.311944385276891 0.012194353916209481 1.3155648172145649 0 0 0
7 1 10.775415209469196 -0.020348787009306854 1.3182802468948311 0 0 0
13 1 17.18647943448498 -0.11228917911594688 1.3766776235606935 0 0 0
2 1 1.076123167 1.8639 1.2829815 0 0 0
8 1 7.563191124318743 1.9984880876707891 1.2332210319968018 0 0 0
191 3 6.42958203732212 11.119163563224308 0.04659148277348988 0 0 0
14 1 13.952622591441278 1.9324479591359758 1.1118643696795112 0 0 0
188 1 7.657542372197807 13.03251796841481 1.189338558247587 0 0 0
65 3 0 3.7278 0 0 0 0
61 1 4.243879188348343 3.7257813682084135 1.1949765052659684 0 0 0
194 1 13.98253881925077 13.091668354721689 1.1941576426488245 0 0 0
67 1 10.752613392774613 3.7185512297283267 1.1579854600283401 0 0 0
73 1 17.28199818381571 3.6111690788450046 1.2448613333196097 0 0 0
62 1 1.076123167 5.5917 1.2829815 0 0 0
125 3 0 7.4556 0 0 0 0
11 3 6.432047065571637 0.04786978980062811 0.0657461908449041 0 0 0
121 1 4.202845953426464 7.596278761787212 1.3026051126253093 0 0 0
68 1 7.427847952740388 5.573483236979092 1.242344405090314 0 0 0
127 1 10.784387799050654 7.549902053022227 1.1739738930452384 0 0 0
74 1 14.005726424580093 5.53923731361354 1.132969342587777 0 0 0
133 1 17.171365909142526 7.401926998543759 1.1911171621381844 0 0 0
122 1 1.076123167 9.3195 1.2829815 0 0 0
128 1 7.403280740285004 9.241313524908627 1.266826147883711 0 0 0
134 1 13.90173338308276 9.335116693101023 1.0800871994856487 0 0 0
185 3 0 11.1834 0 0 0 0
181 1 4.156454384552306 11.194569643931551 1.2304227306526143 0 0 0
187 1 10.713492426770127 11.218795315052784 1.227007428067333 0 0 0
193 1 17.246033683548976 11.169667762236012 1.274876710235265 0 0 0
182 1 1.076123167 13.0473 1.2829815 0 0 0
138 3 16.16486764317808 9.315572416517853 0.008506802438706306 0 0 0
131 3 6.3583773089676106 7.4520736989080625 0.016750657594828945 0 0 0
12 3 9.717371135237183 1.8465404054774417 0.03601643990829706 0 0 0
198 3 16.100157297680084 12.966202395047873 0.014115112008848575 0 0 0
243 2 2.152246333 14.9112 -1.2829815 0 0 0
249 2 8.581158339473902 14.870680141802294 -1.406739991971834 0 0 0
371 3 6.30525960763974 22.40336639096733 -0.1492600292246925 0 0 0
255 2 15.047762987128559 14.863684891370774 -1.184995426644596 0 0 0
244 2 5.457103376075623 16.659759591583946 -1.3368716969372 0 0 0
252 3 9.586604929469928 16.830269916907255 -0.25963852143690336 0 0 0
250 2 11.876747582243102 16.74800439659165 -1.392284473280429 0 0 0
432 3 9.632963921297062 27.89806633824119 -0.2787171082305315 0 0 0
303 2 2.152246333 18.639 -1.2829815 0 0 0
309 2 8.558347133717218 18.689399040206112 -1.559929428401514 0 0 0
317 3 12.837282527003168 18.657657150043935 -0.11012950542419073 0 0 0
315 2 15.089753876120072 18.64799599363673 -1.2514268019980328 0 0 0
363 2 2.152246333 22.3668 -1.2829815 0 0 0
304 2 5.2174181647161335 20.523710880172487 -1.4047362001113577 0 0 0
312 3 9.619753963693338 20.47806787730662 -0.269926674984251 0 0 0
369 2 8.425748131329161 22.38548701772813 -1.4258798133784645 0 0 0
377 3 12.850455144174191 22.38262562780137 -0.16560428019005155 0 0 0
310 2 11.797692913277169 20.564982420678426 -1.4126746750571348 0 0 0
375 2 15.055317331642437 22.343531845742447 -1.3428295885610089 0 0 0
246 3 3.22543897189733 16.66903595483355 -0.012266813111959814 0 0 0
306 3 3.1567631946103756 20.48415132468607 -0.01959192734045125 0 0 0
364 2 5.322653030168288 24.28391776710489 -1.3809920304021523 0 0 0
370 2 11.752676978624184 24.226272789602607 -1.4002550384646122 0 0 0
378 3 16.085626965970725 24.144570681773367 -0.10686890290453363 0 0 0
423 2 2.152246333 26.0946 -1.2829815 0 0 0
429 2 8.55411401922202 26.0059012937102 -1.4394386193716597 0 0 0
437 3 12.796448687830237 26.106547684133215 -0.18314304146609836 0 0 0
435 2 14.977340568571117 26.01215490500634 -1.4423061661442054 0 0 0
424 2 5.408174900713039 28.043724933171298 -1.2738158191470272 0 0 0
372 3 9.565341558376009 24.176270240633347 -0.17990713498453886 0 0 0
430 2 11.713888571522048 27.927310965517364 -1.5664989897208887 0 0 0
438 3 16.108037935892195 27.85770627102952 -0.3069215730682792 0 0 0
311 3 6.4861194300988085 18.659048132118073 -0.19266929353618964 0 0 0
366 3 3.2044343424647237 24.28005062344055 -0.07381656656629794 0 0 0
257 3 12.86599688357223 14.934164090235559 -0.10223690974701417 0 0 0
258 3 16.208914834219804 16.771461639781702 -0.08515072905057813 0 0 0
431 3 6.425626125806945 26.082486825335977 -0.1462841323112473 0 0 0
426 3 3.17550527760872 27.999263487845322 -0.025826849018406144 0 0 0
245 3 0 14.9112 0 0 0 0
241 1 4.365277399611143 14.93326411750311 1.2835176715162517 0 0 0
434 1 14.025655740150228 27.953372658733556 0.9054746851908061 0 0 0
247 1 10.693323423923257 14.97522362716284 1.0317434514977502 0 0 0
253 1 17.176549189579497 14.872847701992459 1.2319436902848673 0 0 0
242 1 1.076123167 16.7751 1.2829815 0 0 0
427 1 10.735929533703718 26.05145158258263 1.0368020038144383 0 0 0
248 1 7.5468180222696395 16.89829693761151 1.1587640262920982 0 0 0
254 1 13.915247787099997 16.881215733821108 1.101563054578352 0 0 0
305 3 0 18.639 0 0 0 0
301 1 4.389785851804417 18.575722409214492 1.0837929708213545 0 0 0
428 1 7.5660936177191775 27.9103380028199 1.1117110599664075 0 0 0
307 1 10.686956642800695 18.71084038196419 1.027938658368926 0 0 0
313 1 17.167707443978465 18.675460053466374 1.2322959676215188 0 0 0
302 1 1.076123167 20.5029 1.2829815 0 0 0
365 3 0 22.3668 0 0 0 0
422 1 1.076123167 27.9585 1.2829815 0 0 0
361 1 4.2441052390183 22.393580282008294 1.1837480386880583 0 0 0
308 1 7.536476139592989 20.601599060187887 1.0302262152100796 0 0 0
421 1 4.224516272720311 26.15909019267897 1.0995803421691732 0 0 0
367 1 10.596799205115838 22.31202283246746 1.050435778225879 0 0 0
314 1 13.827162747386314 20.548478115270083 1.1464767849282975 0 0 0
373 1 17.158584440922198 22.284660089872624 1.1833252986340177 0 0 0
362 1 1.076123167 24.2307 1.2829815 0 0 0
368 1 7.4585976526409725 24.236076901770737 1.0865364216789293 0 0 0
433 1 17.21144510340332 26.014904827307124 1.0757887173106448 0 0 0
374 1 13.898567022781535 24.149990162242158 1.0442954076298057 0 0 0
425 3 0 26.0946 0 0 0 0
251 3 6.543911502282509 14.977034976519361 0.03504515508838304 0 0 0
318 3 16.072570004366906 20.506328230837727 0.0010838034697234268 0 0 0
483 2 2.152246333 29.8224 -1.2829815 0 0 0
678 3 16.203708937825734 42.82429508171246 -0.0289475471809461 0 0 0
489 2 8.55856382163899 29.859688095516333 -1.4232051863745203 0 0 0
497 3 12.840586344294385 29.771721647544716 -0.3223408804879168 0 0 0
495 2 15.059635018486636 29.812782785320792 -1.4614304356122876 0 0 0
484 2 5.354819339004293 31.737878231417184 -1.1048027956283595 0 0 0
664 2 5.380982885987836 42.82178207723286 -1.1159308409670015 0 0 0
490 2 11.832753526860191 31.756728288825908 -1.3874709116494164 0 0 0
498 3 16.19788693682103 31.696298114334358 -0.15230050614616342 0 0 0
543 2 2.152246333 33.5502 -1.2829815 0 0 0
610 2 11.823976787126524 39.131441077640034 -1.279168087506789 0 0 0
549 2 8.500743538887843 33.580880067474695 -1.1900137654126264 0 0 0
557 3 12.895146355143806 33.568691874987024 -0.08048451699333532 0 0 0
555 2 15.078194192264025 33.57427174400427 -1.2596794799127282 0 0 0
603 2 2.152246333 37.278 -1.2829815 0 0 0
669 2 8.609531848443956 40.98838199206162 -1.1786972691587416 0 0 0
544 2 5.376995941465476 35.391537525659054 -1.1159535546065973 0 0 0
670 2 11.79087607624857 42.78260463822647 -1.1812426161112284 0 0 0
609 2 8.60265446194447 37.2251006599335 -1.2121463095307616 0 0 0
550 2 11.804865246934828 35.38824612522426 -1.2441512942857875 0 0 0
663 2 2.152246333 41.0058 -1.2829815 0 0 0
615 2 15.088335955159803 37.27739870723784 -1.2267317009442507 0 0 0
558 3 16.230248529232703 35.348887573626385 -0.06773794226261061 0 0 0
492 3 9.691562276933302 31.627089710086114 -0.1418160860248426 0 0 0
604 2 5.44108826588156 39.134499233573095 -1.121205142317451 0 0 0
675 2 14.980357235224503 40.9694677463208 -1.2345762915253828 0 0 0
606 3 3.19383935119987 39.15261277798367 -0.027758687328990148 0 0 0
491 3 6.458423258276259 29.83407419299781 -0.003316613514790322 0 0 0
485 3 0 29.8224 0 0 0 0
481 1 4.275006820917023 29.83830944111407 1.2409650324713453 0 0 0
487 1 10.665774597313856 29.69010299848536 0.9564456707749478 0 0 0
493 1 17.27761098824537 29.75833951083186 0.9552313590466677 0 0 0
482 1 1.076123167 31.6863 1.2829815 0 0 0
612 3 9.662437443963064 39.15051159780971 0.07577319234165257 0 0 0
488 1 7.593854880370568 31.614613306004216 1.2736143881465296 0 0 0
494 1 13.946035521412963 31.60480794849569 0.9951350796186453 0 0 0
545 3 0 33.5502 0 0 0 0
541 1 4.193590141336962 33.47090940966326 1.3521322472849306 0 0 0
547 1 10.735383466497018 33.45407293531806 1.1409698136166824 0 0 0
553 1 17.371806013153797 33.53451192389523 1.1199002243606073 0 0 0
542 1 1.076123167 35.4141 1.2829815 0 0 0
605 3 0 37.278 0 0 0 0
601 1 4.303326912820456 37.33315604535913 1.2076078061088447 0 0 0
548 1 7.562255142295236 35.41251656320708 1.3908474123355177 0 0 0
674 1 14.050252029236466 42.781446056662794 1.2463662925450285 0 0 0
607 1 10.848174829773281 37.280652589413855 1.2981982063419495 0 0 0
554 1 14.098304032521487 35.321227277851 1.1720375618541738 0 0 0
613 1 17.192640214808186 37.23879888908697 1.2305546700130887 0 0 0
602 1 1.076123167 39.1419 1.2829815 0 0 0
608 1 7.60258144240979 39.173868817048536 1.4832305796323362 0 0 0
614 1 13.90870205269087 39.10000400585186 1.422241659466881 0 0 0
665 3 0 41.0058 0 0 0 0
661 1 4.200913110755941 41.034262378127934 1.2788897355327424 0 0 0
667 1 10.723001533819268 40.88918220909661 1.3408907161514971 0 0 0
673 1 17.231970773120217 41.0303779967294 1.3503698433034512 0 0 0
662 1 1.076123167 42.8697 1.2829815 0 0 0
672 3 9.692568121576807 42.74322822959866 0.10312807791564807 0 0 0
668 1 7.587765872205829 42.8766723388512 1.2758772545375452 0 0 0
677 3 12.855765374158858 40.92061140235775 0.09893472502607155 0 0 0
486 3 3.1539438033558884 31.64862816304949 0.03756114371085093 0 0 0
671 3 6.421882698618724 40.96117921121238 0.17399584924381023 0 0 0
552 3 9.720017559530907 35.38976123246076 0.07559350266457392 0 0 0
666 3 3.1935820021132595 42.91327541358297 0.051943599867981236 0 0 0
611 3 6.55783418754783 37.30141988573929 0.14840602783356624 0 0 0
551 3 6.4392830706881 33.55705032022865 0.23089085681177332 0 0 0
546 3 3.1873401089128413 35.349561897557 0.0016255884429767016 0 0 0
618 3 16.07532647940971 39.14212093648306 0.08431751035191841 0 0 0
617 3 12.925546497644746 37.252298980325236 0.013202874919048271 0 0 0
723 2 2.152246333 44.7336 -1.2829815 0 0 0
729 2 8.580314515580778 44.654879725755926 -1.1889751395699864 0 0 0
735 2 15.149389364179669 44.75489582736491 -1.0983960426866097 0 0 0
724 2 5.32914697968477 46.61050040984377 -1.208855482191838 0 0 0
730 2 11.753105151942526 46.50707174456109 -1.1932151011013328 0 0 0
783 2 2.152246333 48.4614 -1.2829815 0 0 0
789 2 8.67276075614337 48.45896451058102 -1.1686623801868699 0 0 0
795 2 15.076355535000285 48.31075615209832 -1.3379709770481016 0 0 0
843 2 2.152246333 52.1892 -1.2829815 0 0 0
858 3 16.157208318737297 53.87072829718791 -0.0003874887811423013 0 0 0
784 2 5.3145304907845405 50.28016827459031 -1.2587322783443533 0 0 0
849 2 8.612960130241143 52.07992760731678 -1.1921724497605475 0 0 0
790 2 11.944632557044391 50.25116521136174 -1.2127092907016146 0 0 0
855 2 15.118739295275901 52.01799082863579 -1.2040798008165337 0 0 0
904 2 5.42840484396794 57.802584842476975 -1.1683500822362158 0 0 0
844 2 5.356726430781867 54.07174256850549 -1.179164180199411 0 0 0
850 2 11.860826822084542 53.98208936575182 -1.143038660703479 0 0 0
903 2 2.152246333 55.917 -1.2829815 0 0 0
910 2 11.8246841330553 57.681267801798654 -0.9599009475389562 0 0 0
909 2 8.561664654887611 55.813088914121614 -1.1652321196522497 0 0 0
915 2 15.092449063433108 55.779229470781914 -1.2935779595176402 0 0 0
791 3 6.480430272116596 48.43200231422807 -0.012488323031028134 0 0 0
798 3 16.20856724042731 50.18820824739626 -0.09430336930091462 0 0 0
786 3 3.2054458187818113 50.36639772764337 -0.06551046041480853 0 0 0
918 3 16.124130706367712 57.596466970203586 -0.02190573344650678 0 0 0
906 3 3.1776161322921546 57.83533887270387 -0.06755962216945811 0 0 0
797 3 13.024845002038168 48.301558758519285 -0.005068175984155491 0 0 0
851 3 6.488197585386537 52.14150189230798 -0.0036099183976766214 0 0 0
725 3 0 44.7336 0 0 0 0
721 1 4.2349751683834524 44.69474890583022 1.312555768419179 0 0 0
738 3 16.1563740727189 46.5668331921683 0.006163443610118947 0 0 0
727 1 10.781308478124904 44.609861679874335 1.303916733831336 0 0 0
737 3 12.9215331904426 44.59595054903353 0.031202273929500368 0 0 0
733 1 17.236918332346036 44.592617962448806 1.1534038488315654 0 0 0
722 1 1.076123167 46.5975 1.2829815 0 0 0
914 1 14.095766454434333 57.689639962295416 1.2567718948623652 0 0 0
728 1 7.4585529375730895 46.527871134084016 1.2068751948224172 0 0 0
732 3 9.72330600623456 46.54731901210999 0.1032493628401859 0 0 0
734 1 14.027436373918228 46.45693439604205 1.3338715170764588 0 0 0
846 3 3.1975291054423436 54.067617561895204 0.02921079666739441 0 0 0
785 3 0 48.4614 0 0 0 0
781 1 4.296149978628282 48.48124122872134 1.1680527613087162 0 0 0
911 3 6.373170387705529 55.90828177426464 0.09233855026474568 0 0 0
787 1 10.87814619868852 48.49545870787343 1.2970459865943764 0 0 0
726 3 3.253068902536682 46.61202848789622 0.04599483306860294 0 0 0
793 1 17.339687741227152 48.432135935916584 1.2083385191058378 0 0 0
782 1 1.076123167 50.3253 1.2829815 0 0 0
845 3 0 52.1892 0 0 0 0
841 1 4.305382222166487 52.12720072217126 1.179110407198833 0 0 0
788 1 7.556684617424523 50.279721787910745 1.2919103840793298 0 0 0
902 1 1.076123167 57.7809 1.2829815 0 0 0
792 3 9.775386477412436 50.2850333281052 0.07518412630064104 0 0 0
847 1 10.86466083404629 52.13557659226192 1.2508124910943794 0 0 0
857 3 13.014614384225203 52.10691472530573 0.11457620115488636 0 0 0
794 1 14.091468155443852 50.21339616761324 1.212489163354486 0 0 0
853 1 17.320794980777993 52.007763218675635 1.1898326204645193 0 0 0
908 1 7.501410210450148 57.80931062956176 1.3833364145938283 0 0 0
842 1 1.076123167 54.0531 1.2829815 0 0 0
848 1 7.5980651715359615 53.997267940154686 1.2585703982580159 0 0 0
912 3 9.592392871376976 57.71936052983519 0.10237881919336587 0 0 0
854 1 14.039055012614034 53.92333058345718 1.321433875027716 0 0 0
852 3 9.727814529765837 54.022458153895904 0.1028314520969493 0 0 0
905 3 0 55.917 0 0 0 0
901 1 4.226422551951333 56.04402191781069 1.2733605948001194 0 0 0
907 1 10.78156620564473 55.82865150320044 1.3934780871531274 0 0 0
917 3 12.901532955177364 55.82760568085837 0.10806131944808005 0 0 0
913 1 17.241579307446695 55.75874108520253 1.2246928027054769 0 0 0
731 3 6.398024060750729 44.71149745580932 0.005137733807110455 0 0 0
963 2 2.152246333 59.6448 -1.2829815 0 0 0
969 2 8.54385954076141 59.60362981831139 -1.118908236123729 0 0 0
975 2 14.998108888720319 59.491859020350184 -1.1900272505159672 0 0 0
1090 2 11.758682035223892 68.85900452174475 -1.1155261251184498 0 0 0
964 2 5.507242180769856 61.59191036839697 -1.1983044640623504 0 0 0
970 2 11.777517177897519 61.365575516272806 -1.0904266965003762 0 0 0
1023 2 2.152246333 63.3726 -1.2829815 0 0 0
1150 2 11.748546908581265 72.59098816044475 -1.1650003209861217 0 0 0
1029 2 8.66261476148173 63.34614585923084 -1.0814875112192897 0 0 0
1035 2 15.010573305261396 63.27726604339529 -1.1452258079770439 0 0 0
1083 2 2.152246333 67.1004 -1.2829815 0 0 0
1024 2 5.488126462630086 65.24904426091166 -1.0754326274806143 0 0 0
1143 2 2.152246333 70.8282 -1.2829815 0 0 0
1089 2 8.686069199591431 67.08460983226009 -1.1256706717488962 0 0 0
1149 2 8.541983857358538 70.7339736805349 -1.1031603078773842 0 0 0
1030 2 11.798462180350956 65.22110947050957 -1.1436085560457145 0 0 0
1155 2 15.023236964410241 70.72697211691201 -1.1525004664362912 0 0 0
1095 2 15.017754722768121 67.12696108758689 -1.211496688743668 0 0 0
1144 2 5.413776356230506 72.6643275004942 -1.1447958878732554 0 0 0
1084 2 5.401675158219972 69.00875891747847 -1.1506419772979106 0 0 0
966 3 3.2367691193402495 61.54546532776266 -0.07509065065711594 0 0 0
965 3 0 59.6448 0 0 0 0
961 1 4.246659870392121 59.66458618010134 1.250136153547602 0 0 0
1097 3 12.888659585767567 67.02022021258098 0.10750833590599428 0 0 0
967 1 10.79928360651093 59.514988712145055 1.3823174116755599 0 0 0
977 3 12.92556520025481 59.52498808479377 0.11739742040233414 0 0 0
973 1 17.23408559165259 59.462904682693924 1.246694795198893 0 0 0
962 1 1.076123167 61.5087 1.2829815 0 0 0
968 1 7.512751003492878 61.43300661940469 1.351767861348392 0 0 0
1154 1 13.987016713336766 72.74506340587861 1.3342997483728145 0 0 0
974 1 13.939639079400457 61.42757160415429 1.3062047204770082 0 0 0
978 3 16.079103368393298 61.34017892373645 0.09934350588084222 0 0 0
1025 3 0 63.3726 0 0 0 0
1021 1 4.3079798459360505 63.406540390620286 1.3199716482459236 0 0 0
1027 1 10.689729836464569 63.33118717563582 1.311213165730542 0 0 0
1037 3 12.86228091845161 63.21464817471771 0.03420781383262159 0 0 0
1033 1 17.197832726773967 63.26726862016442 1.1665940293618213 0 0 0
1022 1 1.076123167 65.2365 1.2829815 0 0 0
1085 3 0 67.1004 0 0 0 0
1032 3 9.625266536530923 65.27438662521627 0.17066086282194023 0 0 0
1081 1 4.1733373733395425 67.11169811788028 1.190878223377515 0 0 0
1028 1 7.461831796147633 65.26788366516344 1.3869394802893458 0 0 0
1087 1 10.866888062519175 67.08451814062438 1.38587245591761 0 0 0
1034 1 13.90946803451271 65.10462026143368 1.2780147431134752 0 0 0
1038 3 16.034795949659166 65.21294238913238 0.021509830617727273 0 0 0
1093 1 17.194865930103006 67.04573453499883 1.3286707889461717 0 0 0
1082 1 1.076123167 68.9643 1.2829815 0 0 0
1088 1 7.5505955686711035 68.91209523725779 1.3916712228103458 0 0 0
1094 1 13.967568612335498 68.88588215740917 1.3262031226412652 0 0 0
1145 3 0 70.8282 0 0 0 0
1141 1 4.277310942061487 70.86044451819043 1.299605758471595 0 0 0
1147 1 10.772963637024228 70.7835062067615 1.411738711733135 0 0 0
1153 1 17.305976497169382 70.72027099884767 1.3218198345320693 0 0 0
1142 1 1.076123167 72.6921 1.2829815 0 0 0
1148 1 7.464207811307737 72.72762452069578 1.3201420846841316 0 0 0
1092 3 9.694910630466435 68.93207700125315 0.28637708123335415 0 0 0
1146 3 3.2195787534318754 72.70822891490678 0.04484788924297615 0 0 0
1091 3 6.486224803677305 67.15301012428945 0.09464587539438231 0 0 0
972 3 9.646609878474733 61.33462744177907 0.16422912071944656 0 0 0
1152 3 9.63231886946924 72.57038639911568 0.09340547097174438 0 0 0
1157 3 12.8540502726944 70.81864651637329 0.08994888634168123 0 0 0
1151 3 6.506393336775758 70.82258616421176 0.15477648436921992 0 0 0
971 3 6.4161338618784 59.62550997679506 0.11246430395153799 0 0 0
1026 3 3.2250589672280676 65.19721778677605 0.0012948167601519308 0 0 0
1158 3 16.132993394290445 72.59762568959141 0.07603283248138755 0 0 0
1098 3 16.098099389143908 68.8819851395669 0.11945286753483701 0 0 0
1031 3 6.482714631948903 63.354155067117055 0.17798837750788335 0 0 0
1086 3 3.208671972592582 69.0021058170839 0.041936381717608114 0 0 0
23 3 19.305072493402413 -0.07476839814416916 -0.04094321388166342 0 0 0
21 2 21.337527846842477 -0.0738355855535405 -1.4185608538586871 0 0 0
29 3 25.81737131316836 -0.06979443039224481 -0.24322028971310541 0 0 0
27 2 28.019423154989507 -0.14556619090195494 -1.446937468870259 0 0 0
35 3 32.29727289535591 -0.11218244378431314 -0.42089574381151285 0 0 0
33 2 34.46052721694031 -0.25186491352208296 -1.6739054479013546 0 0 0
16 2 18.300325341873837 1.770271323990915 -1.2879770448209433 0 0 0
24 3 22.566182520924603 1.738910818693835 -0.24151396987722573 0 0 0
22 2 24.679985424556047 1.7344914487645624 -1.4832023815638253 0 0 0
30 3 29.08905692338718 1.7757399883253484 -0.306179222381438 0 0 0
28 2 31.120433940457072 1.768030123922363 -1.6593289960148754 0 0 0
36 3 35.47254704558227 1.6819890108866409 -0.48340248963194077 0 0 0
83 3 19.43030711844627 3.678284836330337 -0.02538215631697244 0 0 0
81 2 21.5849863656695 3.710743659769881 -1.283178097762177 0 0 0
89 3 25.77409271930756 3.6525026891673837 -0.25557656222499453 0 0 0
87 2 27.83392828797059 3.6203024334238965 -1.5983095139881354 0 0 0
95 3 32.31564653770365 3.6672013380345425 -0.5503736961387824 0 0 0
93 2 34.548711687753396 3.579207241751074 -1.7491074003176885 0 0 0
76 2 18.276839227181465 5.506483433527169 -1.327094111967439 0 0 0
204 3 22.588913491721232 13.067900962578546 -0.07137886284654915 0 0 0
209 3 25.740459082783186 11.170529754661537 -0.3254111606624966 0 0 0
82 2 24.58782690743792 5.53553008811747 -1.5171431710145615 0 0 0
147 2 27.94073860941554 7.341339648316223 -1.6250168436665147 0 0 0
216 3 35.48788702888791 13.029012286385758 -0.49431868168151255 0 0 0
88 2 31.18276365001102 5.480258991829834 -1.7814253944048348 0 0 0
155 3 32.290971898704406 7.4018000923057965 -0.5893716003140734 0 0 0
153 2 34.46627483251175 7.494996980210245 -1.8234597007114808 0 0 0
96 3 35.59867382086434 5.549920466548033 -0.6566217563834913 0 0 0
136 2 18.40283868307102 9.259752107902417 -1.2821643568881633 0 0 0
141 2 21.4102372525022 7.350473223828469 -1.3521961988234692 0 0 0
144 3 22.59537695144851 9.212169201309177 -0.15912924727409228 0 0 0
142 2 24.618776909033738 9.24133045052256 -1.5653639974299407 0 0 0
208 2 31.13821554844022 13.19874791467075 -1.5958121715997735 0 0 0
148 2 31.13434317962603 9.30855983763813 -1.8029911286771068 0 0 0
156 3 35.53958956223017 9.364056270449044 -0.6212820148471178 0 0 0
143 3 19.264179419117106 7.334949228664281 -0.04749512851082131 0 0 0
201 2 21.540285331245226 11.212944394700608 -1.2756841844418585 0 0 0
207 2 27.904026657663778 11.064205771252745 -1.5689508843707054 0 0 0
215 3 32.26247980158903 11.191111601867812 -0.5677362679193179 0 0 0
213 2 34.45357535554926 11.310219919720177 -1.8099717747799122 0 0 0
196 2 18.277735558274713 13.026857696439293 -1.2221386320101961 0 0 0
202 2 24.675486953459757 13.050707257752952 -1.5248840808148483 0 0 0
90 3 29.15251559242429 5.436444311832268 -0.43217188985626687 0 0 0
149 3 25.766701152784538 7.378964810706791 -0.39874438075031093 0 0 0
210 3 29.01667765281189 13.023115364843614 -0.3766602398147743 0 0 0
150 3 28.97242622192406 9.224592458624185 -0.44292734350533935 0 0 0
84 3 22.599435125798156 5.519432049779018 -0.07089023413186034 0 0 0
19 1 23.64521881768849 -0.08214891070898643 0.9568918958066511 0 0 0
25 1 30.208576706664513 -0.11593804689558389 0.9383710748264031 0 0 0
20 1 20.424887057562128 1.7731853703872469 1.1663584626645531 0 0 0
26 1 27.025563391921036 1.7904613244021672 1.018384812187931 0 0 0
32 1 33.30144215061711 1.7957134958293801 0.7474231842734592 0 0 0
79 1 23.680717481595067 3.5294676951406267 1.0553291417692916 0 0 0
85 1 30.18160162815777 3.653080755873105 0.7721409580223838 0 0 0
80 1 20.39098482407117 5.547971101665736 1.1788578372546767 0 0 0
212 1 33.3442328544491 12.968368000398065 0.8037655212884967 0 0 0
86 1 26.96845413869232 5.5343887472637885 0.7442449659791633 0 0 0
145 1 30.144689825783008 7.365801492583885 0.7066779298361071 0 0 0
92 1 33.403892596734224 5.624043694462215 0.6898284012834313 0 0 0
140 1 20.42479471484995 9.211110310480777 1.1522309766861871 0 0 0
139 1 23.84025600464238 7.312868897004965 1.1886648680877956 0 0 0
146 1 26.828649897898277 9.209833374532723 0.757316611516516 0 0 0
152 1 33.35431016511224 9.300884339600087 0.5522973600481174 0 0 0
199 1 23.747752768985645 11.092989565180506 0.9845391186837493 0 0 0
206 1 26.96484282241996 12.965653712947935 0.8603429705916387 0 0 0
205 1 30.11959638019419 11.06410425712799 0.7091702747400799 0 0 0
200 1 20.52890398376766 12.856667764659285 1.3050375394486249 0 0 0
203 3 19.362108300037676 11.11357458915085 0.010739223308952859 0 0 0
261 2 21.508730953047266 14.902832232506423 -1.3003815763441011 0 0 0
267 2 27.959057660647776 14.969468572638082 -1.59102421026561 0 0 0
275 3 32.264455960438085 14.907268381266785 -0.37097514360812733 0 0 0
273 2 34.31984307299753 14.991974431099555 -1.604035487537507 0 0 0
256 2 18.334130137365797 16.702287799718423 -1.324424539489808 0 0 0
262 2 24.78169322741581 16.78737036068163 -1.3943910364403578 0 0 0
270 3 28.992566800707184 16.791035538629462 -0.27101650330771065 0 0 0
268 2 31.200748697597625 16.781718876964113 -1.5416232469928075 0 0 0
276 3 35.51632479927559 16.895365178958713 -0.5120597402542854 0 0 0
264 3 22.57243681210485 16.78809268974515 -0.09322635379474432 0 0 0
321 2 21.466433372456606 18.695898577594143 -1.3137794582533127 0 0 0
329 3 25.774968951966727 18.641847691552798 -0.1257376366360564 0 0 0
327 2 27.993128923982514 18.763779106597305 -1.356668991695373 0 0 0
335 3 32.29505777399755 18.656485095209156 -0.3758005811839105 0 0 0
333 2 34.350921969482684 18.659251829679544 -1.7799138881660144 0 0 0
316 2 18.22203131107689 20.50964636128812 -1.3195461520517942 0 0 0
383 3 19.311101143793085 22.391416057791417 -0.2165075533222653 0 0 0
381 2 21.45036743456692 22.263390863996438 -1.4610424922192484 0 0 0
324 3 22.552091543709782 20.57611172219007 -0.10598197651627142 0 0 0
322 2 24.729928718069488 20.57330350188565 -1.346448126407612 0 0 0
389 3 25.804284583444517 22.393752041671604 -0.1481298370840807 0 0 0
387 2 28.04547586768875 22.422902481907958 -1.3509756990427968 0 0 0
330 3 29.16447594233795 20.53636067641033 -0.10830296122382678 0 0 0
328 2 31.17445591488538 20.566979824538237 -1.5736788630982776 0 0 0
395 3 32.235137113077144 22.450620928518774 -0.3684903823060251 0 0 0
336 3 35.47768793671444 20.493914377344172 -0.5613561690482262 0 0 0
393 2 34.426139605589334 22.388032347563104 -1.7289090956249225 0 0 0
376 2 18.248608886033328 24.26028402417608 -1.4013183731186436 0 0 0
384 3 22.513077023439635 24.24241268669787 -0.22130567490092254 0 0 0
382 2 24.725684201468173 24.204767575166574 -1.3481220717550038 0 0 0
390 3 29.100469651115002 24.30651411130283 -0.1794205937517569 0 0 0
388 2 31.14017675544531 24.304052599251204 -1.4959020936538807 0 0 0
396 3 35.59340126260359 24.20748536696635 -0.4743908001007654 0 0 0
443 3 19.325245290067528 26.11909775091702 -0.17503141730143465 0 0 0
441 2 21.506469880499374 26.187009645222503 -1.4469248901969272 0 0 0
449 3 25.84373059481171 26.08742280644321 -0.18896646014061727 0 0 0
447 2 27.946348660007992 26.08199218224367 -1.5090224452422574 0 0 0
455 3 32.27060465333491 26.076915316235606 -0.3149799290151692 0 0 0
453 2 34.421712540891725 26.090699636685468 -1.4742318525452973 0 0 0
436 2 18.2548612446564 27.901929199565135 -1.5847605888342458 0 0 0
444 3 22.623460323451347 28.024492591548846 -0.1783694248083428 0 0 0
442 2 24.80334586574369 27.903519317477972 -1.360273530398241 0 0 0
450 3 29.055873997081648 28.019198338350595 -0.17635318200993477 0 0 0
448 2 31.174389172490468 28.113468599011334 -1.4446313144632073 0 0 0
456 3 35.51954665603532 27.93134137842522 -0.20483230776515884 0 0 0
269 3 25.805682925919285 14.854939628688555 -0.2541160839332779 0 0 0
323 3 19.31292381394612 18.657373613526296 -0.06513914080492525 0 0 0
452 1 33.39902321251536 27.92687080209737 0.9350198231723593 0 0 0
259 1 23.634229920822982 14.92020809532593 1.1226760985943 0 0 0
440 1 20.3700887397129 28.056129889518406 0.8453799184780552 0 0 0
265 1 30.110740728373557 14.901489840825493 0.8213555244755355 0 0 0
260 1 20.395072118982608 16.7939847068182 1.1850918994004696 0 0 0
446 1 26.8980763987282 28.001310529565767 1.0451022452652756 0 0 0
266 1 26.837917379528676 16.749617328855237 0.9758183020788334 0 0 0