# LAMMPS data file written by OVITO Basic 3.8.4

2400 atoms
3 atom types

-0.538066581 128.596733419 xlo xhi
-0.93195 73.62405 ylo yhi
-17.51565 17.51565 zlo zhi

Masses

1 78.96  # Se1
2 78.96  # Se2
3 195.09  # Pt

Atoms  # atomic

1 1 4.304492667 0.0 1.2829815 0 0 0
2 1 1.076123167 1.8639 1.2829815 0 0 0
3 2 2.152246333 0.0 -1.2829815 0 0 0
4 2 5.380615834 1.8639 -1.2829815 0 0 0
5 3 0.0 0.0 0.0 0 0 0
6 3 3.2283695 1.8639 0.0 0 0 0
7 1 10.761231667 0.0 1.2829815 0 0 0
8 1 7.532862167 1.8639 1.2829815 0 0 0
9 2 8.608985334 0.0 -1.2829815 0 0 0
10 2 11.837354834 1.8639 -1.2829815 0 0 0
11 3 6.456739 0.0 0.0 0 0 0
12 3 9.685108501 1.8639 0.0 0 0 0
13 1 17.217970668 0.0 1.2829815 0 0 0
14 1 13.989601168 1.8639 1.2829815 0 0 0
15 2 15.065724334 0.0 -1.2829815 0 0 0
16 2 18.294093835 1.8639 -1.2829815 0 0 0
17 3 12.913478001 0.0 0.0 0 0 0
18 3 16.141847501 1.8639 0.0 0 0 0
19 1 23.674709668 0.0 1.2829815 0 0 0
20 1 20.446340168 1.8639 1.2829815 0 0 0
21 2 21.522463335 0.0 -1.2829815 0 0 0
22 2 24.750832835 1.8639 -1.2829815 0 0 0
23 3 19.370217001 0.0 0.0 0 0 0
24 3 22.598586502 1.8639 0.0 0 0 0
25 1 30.131448669 0.0 1.2829815 0 0 0
26 1 26.903079169 1.8639 1.2829815 0 0 0
27 2 27.979202335 0.0 -1.2829815 0 0 0
28 2 31.207571836 1.8639 -1.2829815 0 0 0
29 3 25.826956002 0.0 0.0 0 0 0
30 3 29.055325502 1.8639 0.0 0 0 0
31 1 36.588187669 0.0 1.2829815 0 0 0
32 1 33.359818169 1.8639 1.2829815 0 0 0
33 2 34.435941336 0.0 -1.2829815 0 0 0
34 2 37.664310836 1.8639 -1.2829815 0 0 0
35 3 32.283695002 0.0 0.0 0 0 0
36 3 35.512064503 1.8639 0.0 0 0 0
37 1 43.04492667 0.0 1.2829815 0 0 0
38 1 39.816557169 1.8639 1.2829815 0 0 0
39 2 40.892680336 0.0 -1.2829815 0 0 0
40 2 44.121049836 1.8639 -1.2829815 0 0 0
41 3 38.740434003 0.0 0.0 0 0 0
42 3 41.968803503 1.8639 0.0 0 0 0
43 1 49.50166567 0.0 1.2829815 0 0 0
44 1 46.27329617 1.8639 1.2829815 0 0 0
45 2 47.349419337 0.0 -1.2829815 0 0 0
46 2 50.577788837 1.8639 -1.2829815 0 0 0
47 3 45.197173003 0.0 0.0 0 0 0
48 3 48.425542503 1.8639 0.0 0 0 0
49 1 55.958404671 0.0 1.2829815 0 0 0
50 1 52.73003517 1.8639 1.2829815 0 0 0
51 2 53.806158337 0.0 -1.2829815 0 0 0
52 2 57.034527837 1.8639 -1.2829815 0 0 0
53 3 51.653912004 0.0 0.0 0 0 0
54 3 54.882281504 1.8639 0.0 0 0 0
55 1 62.415143671 0.0 1.2829815 0 0 0
56 1 59.186774171 1.8639 1.2829815 0 0 0
57 2 60.262897338 0.0 -1.2829815 0 0 0
58 2 63.491266838 1.8639 -1.2829815 0 0 0
59 3 58.110651004 0.0 0.0 0 0 0
60 3 61.339020504 1.8639 0.0 0 0 0
61 1 4.304492667 3.7278 1.2829815 0 0 0
62 1 1.076123167 5.5917 1.2829815 0 0 0
63 2 2.152246333 3.7278 -1.2829815 0 0 0
64 2 5.380615834 5.5917 -1.2829815 0 0 0
65 3 0.0 3.7278 0.0 0 0 0
66 3 3.2283695 5.5917 0.0 0 0 0
67 1 10.761231667 3.7278 1.2829815 0 0 0
68 1 7.532862167 5.5917 1.2829815 0 0 0
69 2 8.608985334 3.7278 -1.2829815 0 0 0
70 2 11.837354834 5.5917 -1.2829815 0 0 0
71 3 6.456739 3.7278 0.0 0 0 0
72 3 9.685108501 5.5917 0.0 0 0 0
73 1 17.217970668 3.7278 1.2829815 0 0 0
74 1 13.989601168 5.5917 1.2829815 0 0 0
75 2 15.065724334 3.7278 -1.2829815 0 0 0
76 2 18.294093835 5.5917 -1.2829815 0 0 0
77 3 12.913478001 3.7278 0.0 0 0 0
78 3 16.141847501 5.5917 0.0 0 0 0
79 1 23.674709668 3.7278 1.2829815 0 0 0
80 1 20.446340168 5.5917 1.2829815 0 0 0
81 2 21.522463335 3.7278 -1.2829815 0 0 0
82 2 24.750832835 5.5917 -1.2829815 0 0 0
83 3 19.370217001 3.7278 0.0 0 0 0
84 3 22.598586502 5.5917 0.0 0 0 0
85 1 30.131448669 3.7278 1.2829815 0 0 0
86 1 26.903079169 5.5917 1.2829815 0 0 0
87 2 27.979202335 3.7278 -1.2829815 0 0 0
88 2 31.207571836 5.5917 -1.2829815 0 0 0
89 3 25.826956002 3.7278 0.0 0 0 0
90 3 29.055325502 5.5917 0.0 0 0 0
91 1 36.588187669 3.7278 1.2829815 0 0 0
92 1 33.359818169 5.5917 1.2829815 0 0 0
93 2 34.435941336 3.7278 -1.2829815 0 0 0
94 2 37.664310836 5.5917 -1.2829815 0 0 0
95 3 32.283695002 3.7278 0.0 0 0 0
96 3 35.512064503 5.5917 0.0 0 0 0
97 1 43.04492667 3.7278 1.2829815 0 0 0
98 1 39.816557169 5.5917 1.2829815 0 0 0
99 2 40.892680336 3.7278 -1.2829815 0 0 0
100 2 44.121049836 5.5917 -1.2829815 0 0 0
101 3 38.740434003 3.7278 0.0 0 0 0
102 3 41.968803503 5.5917 0.0 0 0 0
103 1 49.50166567 3.7278 1.2829815 0 0 0
104 1 46.27329617 5.5917 1.2829815 0 0 0
105 2 47.349419337 3.7278 -1.2829815 0 0 0
106 2 50.577788837 5.5917 -1.2829815 0 0 0
107 3 45.197173003 3.7278 0.0 0 0 0
108 3 48.425542503 5.5917 0.0 0 0 0
109 1 55.958404671 3.7278 1.2829815 0 0 0
110 1 52.73003517 5.5917 1.2829815 0 0 0
111 2 53.806158337 3.7278 -1.2829815 0 0 0
112 2 57.034527837 5.5917 -1.2829815 0 0 0
113 3 51.653912004 3.7278 0.0 0 0 0
114 3 54.882281504 5.5917 0.0 0 0 0
115 1 62.415143671 3.7278 1.2829815 0 0 0
116 1 59.186774171 5.5917 1.2829815 0 0 0
117 2 60.262897338 3.7278 -1.2829815 0 0 0
118 2 63.491266838 5.5917 -1.2829815 0 0 0
119 3 58.110651004 3.7278 0.0 0 0 0
120 3 61.339020504 5.5917 0.0 0 0 0
121 1 4.304492667 7.4556 1.2829815 0 0 0
122 1 1.076123167 9.3195 1.2829815 0 0 0
123 2 2.152246333 7.4556 -1.2829815 0 0 0
124 2 5.380615834 9.3195 -1.2829815 0 0 0
125 3 0.0 7.4556 0.0 0 0 0
126 3 3.2283695 9.3195 0.0 0 0 0
127 1 10.761231667 7.4556 1.2829815 0 0 0
128 1 7.532862167 9.3195 1.2829815 0 0 0
129 2 8.608985334 7.4556 -1.2829815 0 0 0
130 2 11.837354834 9.3195 -1.2829815 0 0 0
131 3 6.456739 7.4556 0.0 0 0 0
132 3 9.685108501 9.3195 0.0 0 0 0
133 1 17.217970668 7.4556 1.2829815 0 0 0
134 1 13.989601168 9.3195 1.2829815 0 0 0
135 2 15.065724334 7.4556 -1.2829815 0 0 0
136 2 18.294093835 9.3195 -1.2829815 0 0 0
137 3 12.913478001 7.4556 0.0 0 0 0
138 3 16.141847501 9.3195 0.0 0 0 0
139 1 23.674709668 7.4556 1.2829815 0 0 0
140 1 20.446340168 9.3195 1.2829815 0 0 0
141 2 21.522463335 7.4556 -1.2829815 0 0 0
142 2 24.750832835 9.3195 -1.2829815 0 0 0
143 3 19.370217001 7.4556 0.0 0 0 0
144 3 22.598586502 9.3195 0.0 0 0 0
145 1 30.131448669 7.4556 1.2829815 0 0 0
146 1 26.903079169 9.3195 1.2829815 0 0 0
147 2 27.979202335 7.4556 -1.2829815 0 0 0
148 2 31.207571836 9.3195 -1.2829815 0 0 0
149 3 25.826956002 7.4556 0.0 0 0 0
150 3 29.055325502 9.3195 0.0 0 0 0
151 1 36.588187669 7.4556 1.2829815 0 0 0
152 1 33.359818169 9.3195 1.2829815 0 0 0
153 2 34.435941336 7.4556 -1.2829815 0 0 0
154 2 37.664310836 9.3195 -1.2829815 0 0 0
155 3 32.283695002 7.4556 0.0 0 0 0
156 3 35.512064503 9.3195 0.0 0 0 0
157 1 43.04492667 7.4556 1.2829815 0 0 0
158 1 39.816557169 9.3195 1.2829815 0 0 0
159 2 40.892680336 7.4556 -1.2829815 0 0 0
160 2 44.121049836 9.3195 -1.2829815 0 0 0
161 3 38.740434003 7.4556 0.0 0 0 0
162 3 41.968803503 9.3195 0.0 0 0 0
163 1 49.50166567 7.4556 1.2829815 0 0 0
164 1 46.27329617 9.3195 1.2829815 0 0 0
165 2 47.349419337 7.4556 -1.2829815 0 0 0
166 2 50.577788837 9.3195 -1.2829815 0 0 0
167 3 45.197173003 7.4556 0.0 0 0 0
168 3 48.425542503 9.3195 0.0 0 0 0
169 1 55.958404671 7.4556 1.2829815 0 0 0
170 1 52.73003517 9.3195 1.2829815 0 0 0
171 2 53.806158337 7.4556 -1.2829815 0 0 0
172 2 57.034527837 9.3195 -1.2829815 0 0 0
173 3 51.653912004 7.4556 0.0 0 0 0
174 3 54.882281504 9.3195 0.0 0 0 0
175 1 62.415143671 7.4556 1.2829815 0 0 0
176 1 59.186774171 9.3195 1.2829815 0 0 0
177 2 60.262897338 7.4556 -1.2829815 0 0 0
178 2 63.491266838 9.3195 -1.2829815 0 0 0
179 3 58.110651004 7.4556 0.0 0 0 0
180 3 61.339020504 9.3195 0.0 0 0 0
181 1 4.304492667 11.1834 1.2829815 0 0 0
182 1 1.076123167 13.0473 1.2829815 0 0 0
183 2 2.152246333 11.1834 -1.2829815 0 0 0
184 2 5.380615834 13.0473 -1.2829815 0 0 0
185 3 0.0 11.1834 0.0 0 0 0
186 3 3.2283695 13.0473 0.0 0 0 0
187 1 10.761231667 11.1834 1.2829815 0 0 0
188 1 7.532862167 13.0473 1.2829815 0 0 0
189 2 8.608985334 11.1834 -1.2829815 0 0 0
190 2 11.837354834 13.0473 -1.2829815 0 0 0
191 3 6.456739 11.1834 0.0 0 0 0
192 3 9.685108501 13.0473 0.0 0 0 0
193 1 17.217970668 11.1834 1.2829815 0 0 0
194 1 13.989601168 13.0473 1.2829815 0 0 0
195 2 15.065724334 11.1834 -1.2829815 0 0 0
196 2 18.294093835 13.0473 -1.2829815 0 0 0
197 3 12.913478001 11.1834 0.0 0 0 0
198 3 16.141847501 13.0473 0.0 0 0 0
199 1 23.674709668 11.1834 1.2829815 0 0 0
200 1 20.446340168 13.0473 1.2829815 0 0 0
201 2 21.522463335 11.1834 -1.2829815 0 0 0
202 2 24.750832835 13.0473 -1.2829815 0 0 0
203 3 19.370217001 11.1834 0.0 0 0 0
204 3 22.598586502 13.0473 0.0 0 0 0
205 1 30.131448669 11.1834 1.2829815 0 0 0
206 1 26.903079169 13.0473 1.2829815 0 0 0
207 2 27.979202335 11.1834 -1.2829815 0 0 0
208 2 31.207571836 13.0473 -1.2829815 0 0 0
209 3 25.826956002 11.1834 0.0 0 0 0
210 3 29.055325502 13.0473 0.0 0 0 0
211 1 36.588187669 11.1834 1.2829815 0 0 0
212 1 33.359818169 13.0473 1.2829815 0 0 0
213 2 34.435941336 11.1834 -1.2829815 0 0 0
214 2 37.664310836 13.0473 -1.2829815 0 0 0
215 3 32.283695002 11.1834 0.0 0 0 0
216 3 35.512064503 13.0473 0.0 0 0 0
217 1 43.04492667 11.1834 1.2829815 0 0 0
218 1 39.816557169 13.0473 1.2829815 0 0 0
219 2 40.892680336 11.1834 -1.2829815 0 0 0
220 2 44.121049836 13.0473 -1.2829815 0 0 0
221 3 38.740434003 11.1834 0.0 0 0 0
222 3 41.968803503 13.0473 0.0 0 0 0
223 1 49.50166567 11.1834 1.2829815 0 0 0
224 1 46.27329617 13.0473 1.2829815 0 0 0
225 2 47.349419337 11.1834 -1.2829815 0 0 0
226 2 50.577788837 13.0473 -1.2829815 0 0 0
227 3 45.197173003 11.1834 0.0 0 0 0
228 3 48.425542503 13.0473 0.0 0 0 0
229 1 55.958404671 11.1834 1.2829815 0 0 0
230 1 52.73003517 13.0473 1.2829815 0 0 0
231 2 53.806158337 11.1834 -1.2829815 0 0 0
232 2 57.034527837 13.0473 -1.2829815 0 0 0
233 3 51.653912004 11.1834 0.0 0 0 0
234 3 54.882281504 13.0473 0.0 0 0 0
235 1 62.415143671 11.1834 1.2829815 0 0 0
236 1 59.186774171 13.0473 1.2829815 0 0 0
237 2 60.262897338 11.1834 -1.2829815 0 0 0
238 2 63.491266838 13.0473 -1.2829815 0 0 0
239 3 58.110651004 11.1834 0.0 0 0 0
240 3 61.339020504 13.0473 0.0 0 0 0
241 1 4.304492667 14.9112 1.2829815 0 0 0
242 1 1.076123167 16.7751 1.2829815 0 0 0
243 2 2.152246333 14.9112 -1.2829815 0 0 0
244 2 5.380615834 16.7751 -1.2829815 0 0 0
245 3 0.0 14.9112 0.0 0 0 0
246 3 3.2283695 16.7751 0.0 0 0 0
247 1 10.761231667 14.9112 1.2829815 0 0 0
248 1 7.532862167 16.7751 1.2829815 0 0 0
249 2 8.608985334 14.9112 -1.2829815 0 0 0
250 2 11.837354834 16.7751 -1.2829815 0 0 0
251 3 6.456739 14.9112 0.0 0 0 0
252 3 9.685108501 16.7751 0.0 0 0 0
253 1 17.217970668 14.9112 1.2829815 0 0 0
254 1 13.989601168 16.7751 1.2829815 0 0 0
255 2 15.065724334 14.9112 -1.2829815 0 0 0
256 2 18.294093835 16.7751 -1.2829815 0 0 0
257 3 12.913478001 14.9112 0.0 0 0 0
258 3 16.141847501 16.7751 0.0 0 0 0
259 1 23.674709668 14.9112 1.2829815 0 0 0
260 1 20.446340168 16.7751 1.2829815 0 0 0
261 2 21.522463335 14.9112 -1.2829815 0 0 0
262 2 24.750832835 16.7751 -1.2829815 0 0 0
263 3 19.370217001 14.9112 0.0 0 0 0
264 3 22.598586502 16.7751 0.0 0 0 0
265 1 30.131448669 14.9112 1.2829815 0 0 0
266 1 26.903079169 16.7751 1.2829815 0 0 0
267 2 27.979202335 14.9112 -1.2829815 0 0 0
268 2 31.207571836 16.7751 -1.2829815 0 0 0
269 3 25.826956002 14.9112 0.0 0 0 0
270 3 29.055325502 16.7751 0.0 0 0 0
271 1 36.588187669 14.9112 1.2829815 0 0 0
272 1 33.359818169 16.7751 1.2829815 0 0 0
273 2 34.435941336 14.9112 -1.2829815 0 0 0
274 2 37.664310836 16.7751 -1.2829815 0 0 0
275 3 32.283695002 14.9112 0.0 0 0 0
276 3 35.512064503 16.7751 0.0 0 0 0
277 1 43.04492667 14.9112 1.2829815 0 0 0
278 1 39.816557169 16.7751 1.2829815 0 0 0
279 2 40.892680336 14.9112 -1.2829815 0 0 0
280 2 44.121049836 16.7751 -1.2829815 0 0 0
281 3 38.740434003 14.9112 0.0 0 0 0
282 3 41.968803503 16.7751 0.0 0 0 0
283 1 49.50166567 14.9112 1.2829815 0 0 0
284 1 46.27329617 16.7751 1.2829815 0 0 0
285 2 47.349419337 14.9112 -1.2829815 0 0 0
286 2 50.577788837 16.7751 -1.2829815 0 0 0
287 3 45.197173003 14.9112 0.0 0 0 0
288 3 48.425542503 16.7751 0.0 0 0 0
289 1 55.958404671 14.9112 1.2829815 0 0 0
290 1 52.73003517 16.7751 1.2829815 0 0 0
291 2 53.806158337 14.9112 -1.2829815 0 0 0
292 2 57.034527837 16.7751 -1.2829815 0 0 0
293 3 51.653912004 14.9112 0.0 0 0 0
294 3 54.882281504 16.7751 0.0 0 0 0
295 1 62.415143671 14.9112 1.2829815 0 0 0
296 1 59.186774171 16.7751 1.2829815 0 0 0
297 2 60.262897338 14.9112 -1.2829815 0 0 0
298 2 63.491266838 16.7751 -1.2829815 0 0 0
299 3 58.110651004 14.9112 0.0 0 0 0
300 3 61.339020504 16.7751 0.0 0 0 0
301 1 4.304492667 18.639 1.2829815 0 0 0
302 1 1.076123167 20.5029 1.2829815 0 0 0
303 2 2.152246333 18.639 -1.2829815 0 0 0
304 2 5.380615834 20.5029 -1.2829815 0 0 0
305 3 0.0 18.639 0.0 0 0 0
306 3 3.2283695 20.5029 0.0 0 0 0
307 1 10.761231667 18.639 1.2829815 0 0 0
308 1 7.532862167 20.5029 1.2829815 0 0 0
309 2 8.608985334 18.639 -1.2829815 0 0 0
310 2 11.837354834 20.5029 -1.2829815 0 0 0
311 3 6.456739 18.639 0.0 0 0 0
312 3 9.685108501 20.5029 0.0 0 0 0
313 1 17.217970668 18.639 1.2829815 0 0 0
314 1 13.989601168 20.5029 1.2829815 0 0 0
315 2 15.065724334 18.639 -1.2829815 0 0 0
316 2 18.294093835 20.5029 -1.2829815 0 0 0
317 3 12.913478001 18.639 0.0 0 0 0
318 3 16.141847501 20.5029 0.0 0 0 0
319 1 23.674709668 18.639 1.2829815 0 0 0
320 1 20.446340168 20.5029 1.2829815 0 0 0
321 2 21.522463335 18.639 -1.2829815 0 0 0
322 2 24.750832835 20.5029 -1.2829815 0 0 0
323 3 19.370217001 18.639 0.0 0 0 0
324 3 22.598586502 20.5029 0.0 0 0 0
325 1 30.131448669 18.639 1.2829815 0 0 0
326 1 26.903079169 20.5029 1.2829815 0 0 0
327 2 27.979202335 18.639 -1.2829815 0 0 0
328 2 31.207571836 20.5029 -1.2829815 0 0 0
329 3 25.826956002 18.639 0.0 0 0 0
330 3 29.055325502 20.5029 0.0 0 0 0
331 1 36.588187669 18.639 1.2829815 0 0 0
332 1 33.359818169 20.5029 1.2829815 0 0 0
333 2 34.435941336 18.639 -1.2829815 0 0 0
334 2 37.664310836 20.5029 -1.2829815 0 0 0
335 3 32.283695002 18.639 0.0 0 0 0
336 3 35.512064503 20.5029 0.0 0 0 0
337 1 43.04492667 18.639 1.2829815 0 0 0
338 1 39.816557169 20.5029 1.2829815 0 0 0
339 2 40.892680336 18.639 -1.2829815 0 0 0
340 2 44.121049836 20.5029 -1.2829815 0 0 0
341 3 38.740434003 18.639 0.0 0 0 0
342 3 41.968803503 20.5029 0.0 0 0 0
343 1 49.50166567 18.639 1.2829815 0 0 0
344 1 46.27329617 20.5029 1.2829815 0 0 0
345 2 47.349419337 18.639 -1.2829815 0 0 0
346 2 50.577788837 20.5029 -1.2829815 0 0 0
347 3 45.197173003 18.639 0.0 0 0 0
348 3 48.425542503 20.5029 0.0 0 0 0
349 1 55.958404671 18.639 1.2829815 0 0 0
350 1 52.73003517 20.5029 1.2829815 0 0 0
351 2 53.806158337 18.639 -1.2829815 0 0 0
352 2 57.034527837 20.5029 -1.2829815 0 0 0
353 3 51.653912004 18.639 0.0 0 0 0
354 3 54.882281504 20.5029 0.0 0 0 0
355 1 62.415143671 18.639 1.2829815 0 0 0
356 1 59.186774171 20.5029 1.2829815 0 0 0
357 2 60.262897338 18.639 -1.2829815 0 0 0
358 2 63.491266838 20.5029 -1.2829815 0 0 0
359 3 58.110651004 18.639 0.0 0 0 0
360 3 61.339020504 20.5029 0.0 0 0 0
361 1 4.304492667 22.3668 1.2829815 0 0 0
362 1 1.076123167 24.2307 1.2829815 0 0 0
363 2 2.152246333 22.3668 -1.2829815 0 0 0
364 2 5.380615834 24.2307 -1.2829815 0 0 0
365 3 0.0 22.3668 0.0 0 0 0
366 3 3.2283695 24.2307 0.0 0 0 0
367 1 10.761231667 22.3668 1.2829815 0 0 0
368 1 7.532862167 24.2307 1.2829815 0 0 0
369 2 8.608985334 22.3668 -1.2829815 0 0 0
370 2 11.837354834 24.2307 -1.2829815 0 0 0
371 3 6.456739 22.3668 0.0 0 0 0
372 3 9.685108501 24.2307 0.0 0 0 0
373 1 17.217970668 22.3668 1.2829815 0 0 0
374 1 13.989601168 24.2307 1.2829815 0 0 0
375 2 15.065724334 22.3668 -1.2829815 0 0 0
376 2 18.294093835 24.2307 -1.2829815 0 0 0
377 3 12.913478001 22.3668 0.0 0 0 0
378 3 16.141847501 24.2307 0.0 0 0 0
379 1 23.674709668 22.3668 1.2829815 0 0 0
380 1 20.446340168 24.2307 1.2829815 0 0 0
381 2 21.522463335 22.3668 -1.2829815 0 0 0
382 2 24.750832835 24.2307 -1.2829815 0 0 0
383 3 19.370217001 22.3668 0.0 0 0 0
384 3 22.598586502 24.2307 0.0 0 0 0
385 1 30.131448669 22.3668 1.2829815 0 0 0
386 1 26.903079169 24.2307 1.2829815 0 0 0
387 2 27.979202335 22.3668 -1.2829815 0 0 0
388 2 31.207571836 24.2307 -1.2829815 0 0 0
389 3 25.826956002 22.3668 0.0 0 0 0
390 3 29.055325502 24.2307 0.0 0 0 0
391 1 36.588187669 22.3668 1.2829815 0 0 0
392 1 33.359818169 24.2307 1.2829815 0 0 0
393 2 34.435941336 22.3668 -1.2829815 0 0 0
394 2 37.664310836 24.2307 -1.2829815 0 0 0
395 3 32.283695002 22.3668 0.0 0 0 0
396 3 35.512064503 24.2307 0.0 0 0 0
397 1 43.04492667 22.3668 1.2829815 0 0 0
398 1 39.816557169 24.2307 1.2829815 0 0 0
399 2 40.892680336 22.3668 -1.2829815 0 0 0
400 2 44.121049836 24.2307 -1.2829815 0 0 0
401 3 38.740434003 22.3668 0.0 0 0 0
402 3 41.968803503 24.2307 0.0 0 0 0
403 1 49.50166567 22.3668 1.2829815 0 0 0
404 1 46.27329617 24.2307 1.2829815 0 0 0
405 2 47.349419337 22.3668 -1.2829815 0 0 0
406 2 50.577788837 24.2307 -1.2829815 0 0 0
407 3 45.197173003 22.3668 0.0 0 0 0
408 3 48.425542503 24.2307 0.0 0 0 0
409 1 55.958404671 22.3668 1.2829815 0 0 0
410 1 52.73003517 24.2307 1.2829815 0 0 0
411 2 53.806158337 22.3668 -1.2829815 0 0 0
412 2 57.034527837 24.2307 -1.2829815 0 0 0
413 3 51.653912004 22.3668 0.0 0 0 0
414 3 54.882281504 24.2307 0.0 0 0 0
415 1 62.415143671 22.3668 1.2829815 0 0 0
416 1 59.186774171 24.2307 1.2829815 0 0 0
417 2 60.262897338 22.3668 -1.2829815 0 0 0
418 2 63.491266838 24.2307 -1.2829815 0 0 0
419 3 58.110651004 22.3668 0.0 0 0 0
420 3 61.339020504 24.2307 0.0 0 0 0
421 1 4.304492667 26.0946 1.2829815 0 0 0
422 1 1.076123167 27.9585 1.2829815 0 0 0
423 2 2.152246333 26.0946 -1.2829815 0 0 0
424 2 5.380615834 27.9585 -1.2829815 0 0 0
425 3 0.0 26.0946 0.0 0 0 0
426 3 3.2283695 27.9585 0.0 0 0 0
427 1 10.761231667 26.0946 1.2829815 0 0 0
428 1 7.532862167 27.9585 1.2829815 0 0 0
429 2 8.608985334 26.0946 -1.2829815 0 0 0
430 2 11.837354834 27.9585 -1.2829815 0 0 0
431 3 6.456739 26.0946 0.0 0 0 0
432 3 9.685108501 27.9585 0.0 0 0 0
433 1 17.217970668 26.0946 1.2829815 0 0 0
434 1 13.989601168 27.9585 1.2829815 0 0 0
435 2 15.065724334 26.0946 -1.2829815 0 0 0
436 2 18.294093835 27.9585 -1.2829815 0 0 0
437 3 12.913478001 26.0946 0.0 0 0 0
438 3 16.141847501 27.9585 0.0 0 0 0
439 1 23.674709668 26.0946 1.2829815 0 0 0
440 1 20.446340168 27.9585 1.2829815 0 0 0
441 2 21.522463335 26.0946 -1.2829815 0 0 0
442 2 24.750832835 27.9585 -1.2829815 0 0 0
443 3 19.370217001 26.0946 0.0 0 0 0
444 3 22.598586502 27.9585 0.0 0 0 0
445 1 30.131448669 26.0946 1.2829815 0 0 0
446 1 26.903079169 27.9585 1.2829815 0 0 0
447 2 27.979202335 26.0946 -1.2829815 0 0 0
448 2 31.207571836 27.9585 -1.2829815 0 0 0
449 3 25.826956002 26.0946 0.0 0 0 0
450 3 29.055325502 27.9585 0.0 0 0 0
451 1 36.588187669 26.0946 1.2829815 0 0 0
452 1 33.359818169 27.9585 1.2829815 0 0 0
453 2 34.435941336 26.0946 -1.2829815 0 0 0
454 2 37.664310836 27.9585 -1.2829815 0 0 0
455 3 32.283695002 26.0946 0.0 0 0 0
456 3 35.512064503 27.9585 0.0 0 0 0
457 1 43.04492667 26.0946 1.2829815 0 0 0
458 1 39.816557169 27.9585 1.2829815 0 0 0
459 2 40.892680336 26.0946 -1.2829815 0 0 0
460 2 44.121049836 27.9585 -1.2829815 0 0 0
461 3 38.740434003 26.0946 0.0 0 0 0
462 3 41.968803503 27.9585 0.0 0 0 0
463 1 49.50166567 26.0946 1.2829815 0 0 0
464 1 46.27329617 27.9585 1.2829815 0 0 0
465 2 47.349419337 26.0946 -1.2829815 0 0 0
466 2 50.577788837 27.9585 -1.2829815 0 0 0
467 3 45.197173003 26.0946 0.0 0 0 0
468 3 48.425542503 27.9585 0.0 0 0 0
469 1 55.958404671 26.0946 1.2829815 0 0 0
470 1 52.73003517 27.9585 1.2829815 0 0 0
471 2 53.806158337 26.0946 -1.2829815 0 0 0
472 2 57.034527837 27.9585 -1.2829815 0 0 0
473 3 51.653912004 26.0946 0.0 0 0 0
474 3 54.882281504 27.9585 0.0 0 0 0
475 1 62.415143671 26.0946 1.2829815 0 0 0
476 1 59.186774171 27.9585 1.2829815 0 0 0
477 2 60.262897338 26.0946 -1.2829815 0 0 0
478 2 63.491266838 27.9585 -1.2829815 0 0 0
479 3 58.110651004 26.0946 0.0 0 0 0
480 3 61.339020504 27.9585 0.0 0 0 0
481 1 4.304492667 29.8224 1.2829815 0 0 0
482 1 1.076123167 31.6863 1.2829815 0 0 0
483 2 2.152246333 29.8224 -1.2829815 0 0 0
484 2 5.380615834 31.6863 -1.2829815 0 0 0
485 3 0.0 29.8224 0.0 0 0 0
486 3 3.2283695 31.6863 0.0 0 0 0
487 1 10.761231667 29.8224 1.2829815 0 0 0
488 1 7.532862167 31.6863 1.2829815 0 0 0
489 2 8.608985334 29.8224 -1.2829815 0 0 0
490 2 11.837354834 31.6863 -1.2829815 0 0 0
491 3 6.456739 29.8224 0.0 0 0 0
492 3 9.685108501 31.6863 0.0 0 0 0
493 1 17.217970668 29.8224 1.2829815 0 0 0
494 1 13.989601168 31.6863 1.2829815 0 0 0
495 2 15.065724334 29.8224 -1.2829815 0 0 0
496 2 18.294093835 31.6863 -1.2829815 0 0 0
497 3 12.913478001 29.8224 0.0 0 0 0
498 3 16.141847501 31.6863 0.0 0 0 0
499 1 23.674709668 29.8224 1.2829815 0 0 0
500 1 20.446340168 31.6863 1.2829815 0 0 0
501 2 21.522463335 29.8224 -1.2829815 0 0 0
502 2 24.750832835 31.6863 -1.2829815 0 0 0
503 3 19.370217001 29.8224 0.0 0 0 0
504 3 22.598586502 31.6863 0.0 0 0 0
505 1 30.131448669 29.8224 1.2829815 0 0 0
506 1 26.903079169 31.6863 1.2829815 0 0 0
507 2 27.979202335 29.8224 -1.2829815 0 0 0
508 2 31.207571836 31.6863 -1.2829815 0 0 0
509 3 25.826956002 29.8224 0.0 0 0 0
510 3 29.055325502 31.6863 0.0 0 0 0
511 1 36.588187669 29.8224 1.2829815 0 0 0
512 1 33.359818169 31.6863 1.2829815 0 0 0
513 2 34.435941336 29.8224 -1.2829815 0 0 0
514 2 37.664310836 31.6863 -1.2829815 0 0 0
515 3 32.283695002 29.8224 0.0 0 0 0
516 3 35.512064503 31.6863 0.0 0 0 0
517 1 43.04492667 29.8224 1.2829815 0 0 0
518 1 39.816557169 31.6863 1.2829815 0 0 0
519 2 40.892680336 29.8224 -1.2829815 0 0 0
520 2 44.121049836 31.6863 -1.2829815 0 0 0
521 3 38.740434003 29.8224 0.0 0 0 0
522 3 41.968803503 31.6863 0.0 0 0 0
523 1 49.50166567 29.8224 1.2829815 0 0 0
524 1 46.27329617 31.6863 1.2829815 0 0 0
525 2 47.349419337 29.8224 -1.2829815 0 0 0
526 2 50.577788837 31.6863 -1.2829815 0 0 0
527 3 45.197173003 29.8224 0.0 0 0 0
528 3 48.425542503 31.6863 0.0 0 0 0
529 1 55.958404671 29.8224 1.2829815 0 0 0
530 1 52.73003517 31.6863 1.2829815 0 0 0
531 2 53.806158337 29.8224 -1.2829815 0 0 0
532 2 57.034527837 31.6863 -1.2829815 0 0 0
533 3 51.653912004 29.8224 0.0 0 0 0
534 3 54.882281504 31.6863 0.0 0 0 0
535 1 62.415143671 29.8224 1.2829815 0 0 0
536 1 59.186774171 31.6863 1.2829815 0 0 0
537 2 60.262897338 29.8224 -1.2829815 0 0 0
538 2 63.491266838 31.6863 -1.2829815 0 0 0
539 3 58.110651004 29.8224 0.0 0 0 0
540 3 61.339020504 31.6863 0.0 0 0 0
541 1 4.304492667 33.5502 1.2829815 0 0 0
542 1 1.076123167 35.4141 1.2829815 0 0 0
543 2 2.152246333 33.5502 -1.2829815 0 0 0
544 2 5.380615834 35.4141 -1.2829815 0 0 0
545 3 0.0 33.5502 0.0 0 0 0
546 3 3.2283695 35.4141 0.0 0 0 0
547 1 10.761231667 33.5502 1.2829815 0 0 0
548 1 7.532862167 35.4141 1.2829815 0 0 0
549 2 8.608985334 33.5502 -1.2829815 0 0 0
550 2 11.837354834 35.4141 -1.2829815 0 0 0
551 3 6.456739 33.5502 0.0 0 0 0
552 3 9.685108501 35.4141 0.0 0 0 0
553 1 17.217970668 33.5502 1.2829815 0 0 0
554 1 13.989601168 35.4141 1.2829815 0 0 0
555 2 15.065724334 33.5502 -1.2829815 0 0 0
556 2 18.294093835 35.4141 -1.2829815 0 0 0
557 3 12.913478001 33.5502 0.0 0 0 0
558 3 16.141847501 35.4141 0.0 0 0 0
559 1 23.674709668 33.5502 1.2829815 0 0 0
560 1 20.446340168 35.4141 1.2829815 0 0 0
561 2 21.522463335 33.5502 -1.2829815 0 0 0
562 2 24.750832835 35.4141 -1.2829815 0 0 0
563 3 19.370217001 33.5502 0.0 0 0 0
564 3 22.598586502 35.4141 0.0 0 0 0
565 1 30.131448669 33.5502 1.2829815 0 0 0
566 1 26.903079169 35.4141 1.2829815 0 0 0
567 2 27.979202335 33.5502 -1.2829815 0 0 0
568 2 31.207571836 35.4141 -1.2829815 0 0 0
569 3 25.826956002 33.5502 0.0 0 0 0
570 3 29.055325502 35.4141 0.0 0 0 0
571 1 36.588187669 33.5502 1.2829815 0 0 0
572 1 33.359818169 35.4141 1.2829815 0 0 0
573 2 34.435941336 33.5502 -1.2829815 0 0 0
574 2 37.664310836 35.4141 -1.2829815 0 0 0
575 3 32.283695002 33.5502 0.0 0 0 0
576 3 35.512064503 35.4141 0.0 0 0 0
577 1 43.04492667 33.5502 1.2829815 0 0 0
578 1 39.816557169 35.4141 1.2829815 0 0 0
579 2 40.892680336 33.5502 -1.2829815 0 0 0
580 2 44.121049836 35.4141 -1.2829815 0 0 0
581 3 38.740434003 33.5502 0.0 0 0 0
582 3 41.968803503 35.4141 0.0 0 0 0
583 1 49.50166567 33.5502 1.2829815 0 0 0
584 1 46.27329617 35.4141 1.2829815 0 0 0
585 2 47.349419337 33.5502 -1.2829815 0 0 0
586 2 50.577788837 35.4141 -1.2829815 0 0 0
587 3 45.197173003 33.5502 0.0 0 0 0
588 3 48.425542503 35.4141 0.0 0 0 0
589 1 55.958404671 33.5502 1.2829815 0 0 0
590 1 52.73003517 35.4141 1.2829815 0 0 0
591 2 53.806158337 33.5502 -1.2829815 0 0 0
592 2 57.034527837 35.4141 -1.2829815 0 0 0
593 3 51.653912004 33.5502 0.0 0 0 0
594 3 54.882281504 35.4141 0.0 0 0 0
595 1 62.415143671 33.5502 1.2829815 0 0 0
596 1 59.186774171 35.4141 1.2829815 0 0 0
597 2 60.262897338 33.5502 -1.2829815 0 0 0
598 2 63.491266838 35.4141 -1.2829815 0 0 0
599 3 58.110651004 33.5502 0.0 0 0 0
600 3 61.339020504 35.4141 0.0 0 0 0
601 1 4.304492667 37.278 1.2829815 0 0 0
602 1 1.076123167 39.1419 1.2829815 0 0 0
603 2 2.152246333 37.278 -1.2829815 0 0 0
604 2 5.380615834 39.1419 -1.2829815 0 0 0
605 3 0.0 37.278 0.0 0 0 0
606 3 3.2283695 39.1419 0.0 0 0 0
607 1 10.761231667 37.278 1.2829815 0 0 0
608 1 7.532862167 39.1419 1.2829815 0 0 0
609 2 8.608985334 37.278 -1.2829815 0 0 0
610 2 11.837354834 39.1419 -1.2829815 0 0 0
611 3 6.456739 37.278 0.0 0 0 0
612 3 9.685108501 39.1419 0.0 0 0 0
613 1 17.217970668 37.278 1.2829815 0 0 0
614 1 13.989601168 39.1419 1.2829815 0 0 0
615 2 15.065724334 37.278 -1.2829815 0 0 0
616 2 18.294093835 39.1419 -1.2829815 0 0 0
617 3 12.913478001 37.278 0.0 0 0 0
618 3 16.141847501 39.1419 0.0 0 0 0
619 1 23.674709668 37.278 1.2829815 0 0 0
620 1 20.446340168 39.1419 1.2829815 0 0 0
621 2 21.522463335 37.278 -1.2829815 0 0 0
622 2 24.750832835 39.1419 -1.2829815 0 0 0
623 3 19.370217001 37.278 0.0 0 0 0
624 3 22.598586502 39.1419 0.0 0 0 0
625 1 30.131448669 37.278 1.2829815 0 0 0
626 1 26.903079169 39.1419 1.2829815 0 0 0
627 2 27.979202335 37.278 -1.2829815 0 0 0
628 2 31.207571836 39.1419 -1.2829815 0 0 0
629 3 25.826956002 37.278 0.0 0 0 0
630 3 29.055325502 39.1419 0.0 0 0 0
631 1 36.588187669 37.278 1.2829815 0 0 0
632 1 33.359818169 39.1419 1.2829815 0 0 0
633 2 34.435941336 37.278 -1.2829815 0 0 0
634 2 37.664310836 39.1419 -1.2829815 0 0 0
635 3 32.283695002 37.278 0.0 0 0 0
636 3 35.512064503 39.1419 0.0 0 0 0
637 1 43.04492667 37.278 1.2829815 0 0 0
638 1 39.816557169 39.1419 1.2829815 0 0 0
639 2 40.892680336 37.278 -1.2829815 0 0 0
640 2 44.121049836 39.1419 -1.2829815 0 0 0
641 3 38.740434003 37.278 0.0 0 0 0
642 3 41.968803503 39.1419 0.0 0 0 0
643 1 49.50166567 37.278 1.2829815 0 0 0
644 1 46.27329617 39.1419 1.2829815 0 0 0
645 2 47.349419337 37.278 -1.2829815 0 0 0
646 2 50.577788837 39.1419 -1.2829815 0 0 0
647 3 45.197173003 37.278 0.0 0 0 0
648 3 48.425542503 39.1419 0.0 0 0 0
649 1 55.958404671 37.278 1.2829815 0 0 0
650 1 52.73003517 39.1419 1.2829815 0 0 0
651 2 53.806158337 37.278 -1.2829815 0 0 0
652 2 57.034527837 39.1419 -1.2829815 0 0 0
653 3 51.653912004 37.278 0.0 0 0 0
654 3 54.882281504 39.1419 0.0 0 0 0
655 1 62.415143671 37.278 1.2829815 0 0 0
656 1 59.186774171 39.1419 1.2829815 0 0 0
657 2 60.262897338 37.278 -1.2829815 0 0 0
658 2 63.491266838 39.1419 -1.2829815 0 0 0
659 3 58.110651004 37.278 0.0 0 0 0
660 3 61.339020504 39.1419 0.0 0 0 0
661 1 4.304492667 41.0058 1.2829815 0 0 0
662 1 1.076123167 42.8697 1.2829815 0 0 0
663 2 2.152246333 41.0058 -1.2829815 0 0 0
664 2 5.380615834 42.8697 -1.2829815 0 0 0
665 3 0.0 41.0058 0.0 0 0 0
666 3 3.2283695 42.8697 0.0 0 0 0
667 1 10.761231667 41.0058 1.2829815 0 0 0
668 1 7.532862167 42.8697 1.2829815 0 0 0
669 2 8.608985334 41.0058 -1.2829815 0 0 0
670 2 11.837354834 42.8697 -1.2829815 0 0 0
671 3 6.456739 41.0058 0.0 0 0 0
672 3 9.685108501 42.8697 0.0 0 0 0
673 1 17.217970668 41.0058 1.2829815 0 0 0
674 1 13.989601168 42.8697 1.2829815 0 0 0
675 2 15.065724334 41.0058 -1.2829815 0 0 0
676 2 18.294093835 42.8697 -1.2829815 0 0 0
677 3 12.913478001 41.0058 0.0 0 0 0
678 3 16.141847501 42.8697 0.0 0 0 0
679 1 23.674709668 41.0058 1.2829815 0 0 0
680 1 20.446340168 42.8697 1.2829815 0 0 0
681 2 21.522463335 41.0058 -1.2829815 0 0 0
682 2 24.750832835 42.8697 -1.2829815 0 0 0
683 3 19.370217001 41.0058 0.0 0 0 0
684 3 22.598586502 42.8697 0.0 0 0 0
685 1 30.131448669 41.0058 1.2829815 0 0 0
686 1 26.903079169 42.8697 1.2829815 0 0 0
687 2 27.979202335 41.0058 -1.2829815 0 0 0
688 2 31.207571836 42.8697 -1.2829815 0 0 0
689 3 25.826956002 41.0058 0.0 0 0 0
690 3 29.055325502 42.8697 0.0 0 0 0
691 1 36.588187669 41.0058 1.2829815 0 0 0
692 1 33.359818169 42.8697 1.2829815 0 0 0
693 2 34.435941336 41.0058 -1.2829815 0 0 0
694 2 37.664310836 42.8697 -1.2829815 0 0 0
695 3 32.283695002 41.0058 0.0 0 0 0
696 3 35.512064503 42.8697 0.0 0 0 0
697 1 43.04492667 41.0058 1.2829815 0 0 0
698 1 39.816557169 42.8697 1.2829815 0 0 0
699 2 40.892680336 41.0058 -1.2829815 0 0 0
700 2 44.121049836 42.8697 -1.2829815 0 0 0
701 3 38.740434003 41.0058 0.0 0 0 0
702 3 41.968803503 42.8697 0.0 0 0 0
703 1 49.50166567 41.0058 1.2829815 0 0 0
704 1 46.27329617 42.8697 1.2829815 0 0 0
705 2 47.349419337 41.0058 -1.2829815 0 0 0
706 2 50.577788837 42.8697 -1.2829815 0 0 0
707 3 45.197173003 41.0058 0.0 0 0 0
708 3 48.425542503 42.8697 0.0 0 0 0
709 1 55.958404671 41.0058 1.2829815 0 0 0
710 1 52.73003517 42.8697 1.2829815 0 0 0
711 2 53.806158337 41.0058 -1.2829815 0 0 0
712 2 57.034527837 42.8697 -1.2829815 0 0 0
713 3 51.653912004 41.0058 0.0 0 0 0
714 3 54.882281504 42.8697 0.0 0 0 0
715 1 62.415143671 41.0058 1.2829815 0 0 0
716 1 59.186774171 42.8697 1.2829815 0 0 0
717 2 60.262897338 41.0058 -1.2829815 0 0 0
718 2 63.491266838 42.8697 -1.2829815 0 0 0
719 3 58.110651004 41.0058 0.0 0 0 0
720 3 61.339020504 42.8697 0.0 0 0 0
721 1 4.304492667 44.7336 1.2829815 0 0 0
722 1 1.076123167 46.5975 1.2829815 0 0 0
723 2 2.152246333 44.7336 -1.2829815 0 0 0
724 2 5.380615834 46.5975 -1.2829815 0 0 0
725 3 0.0 44.7336 0.0 0 0 0
726 3 3.2283695 46.5975 0.0 0 0 0
727 1 10.761231667 44.7336 1.2829815 0 0 0
728 1 7.532862167 46.5975 1.2829815 0 0 0
729 2 8.608985334 44.7336 -1.2829815 0 0 0
730 2 11.837354834 46.5975 -1.2829815 0 0 0
731 3 6.456739 44.7336 0.0 0 0 0
732 3 9.685108501 46.5975 0.0 0 0 0
733 1 17.217970668 44.7336 1.2829815 0 0 0
734 1 13.989601168 46.5975 1.2829815 0 0 0
735 2 15.065724334 44.7336 -1.2829815 0 0 0
736 2 18.294093835 46.5975 -1.2829815 0 0 0
737 3 12.913478001 44.7336 0.0 0 0 0
738 3 16.141847501 46.5975 0.0 0 0 0
739 1 23.674709668 44.7336 1.2829815 0 0 0