# LAMMPS data file written by OVITO Basic 3.8.4

12000 atoms
15 atom types

-0.538066581 128.596733419 xlo xhi
-0.93195 73.62405 ylo yhi
-27.57825 27.57825 zlo zhi

Masses

1 78.96  # Se1
2 78.96  # Se2
3 195.09  # Pt
4 78.96  # Se1
5 78.96  # Se2
6 195.09  # Pt
7 78.96  # Se1
8 78.96  # Se2
9 195.09  # Pt
10 78.96  # Se1
11 78.96  # Se2
12 195.09  # Pt
13 78.96  # Se1
14 78.96  # Se2
15 195.09  # Pt

Atoms  # atomic

1 1 4.304492667 0.0 -8.7796185 0 0 0
2 1 1.076123167 1.8639 -8.7796185 0 0 0
3 2 2.152246333 0.0 -11.3455815 0 0 0
4 2 5.380615834 1.8639 -11.3455815 0 0 0
5 3 0.0 0.0 -10.0626 0 0 0
6 3 3.2283695 1.8639 -10.0626 0 0 0
7 1 10.76123167 0.0 -8.7796185 0 0 0
8 1 7.532862167 1.8639 -8.7796185 0 0 0
9 2 8.608985334 0.0 -11.3455815 0 0 0
10 2 11.83735483 1.8639 -11.3455815 0 0 0
11 3 6.456739 0.0 -10.0626 0 0 0
12 3 9.685108501 1.8639 -10.0626 0 0 0
13 1 17.21797067 0.0 -8.7796185 0 0 0
14 1 13.98960117 1.8639 -8.7796185 0 0 0
15 2 15.06572433 0.0 -11.3455815 0 0 0
16 2 18.29409384 1.8639 -11.3455815 0 0 0
17 3 12.913478 0.0 -10.0626 0 0 0
18 3 16.1418475 1.8639 -10.0626 0 0 0
19 1 23.67470967 0.0 -8.7796185 0 0 0
20 1 20.44634017 1.8639 -8.7796185 0 0 0
21 2 21.52246334 0.0 -11.3455815 0 0 0
22 2 24.75083284 1.8639 -11.3455815 0 0 0
23 3 19.370217 0.0 -10.0626 0 0 0
24 3 22.5985865 1.8639 -10.0626 0 0 0
25 1 30.13144867 0.0 -8.7796185 0 0 0
26 1 26.90307917 1.8639 -8.7796185 0 0 0
27 2 27.97920234 0.0 -11.3455815 0 0 0
28 2 31.20757184 1.8639 -11.3455815 0 0 0
29 3 25.826956 0.0 -10.0626 0 0 0
30 3 29.0553255 1.8639 -10.0626 0 0 0
31 1 36.58818767 0.0 -8.7796185 0 0 0
32 1 33.35981817 1.8639 -8.7796185 0 0 0
33 2 34.43594134 0.0 -11.3455815 0 0 0
34 2 37.66431084 1.8639 -11.3455815 0 0 0
35 3 32.283695 0.0 -10.0626 0 0 0
36 3 35.5120645 1.8639 -10.0626 0 0 0
37 1 43.04492667 0.0 -8.7796185 0 0 0
38 1 39.81655717 1.8639 -8.7796185 0 0 0
39 2 40.89268034 0.0 -11.3455815 0 0 0
40 2 44.12104984 1.8639 -11.3455815 0 0 0
41 3 38.740434 0.0 -10.0626 0 0 0
42 3 41.9688035 1.8639 -10.0626 0 0 0
43 1 49.50166567 0.0 -8.7796185 0 0 0
44 1 46.27329617 1.8639 -8.7796185 0 0 0
45 2 47.34941934 0.0 -11.3455815 0 0 0
46 2 50.57778884 1.8639 -11.3455815 0 0 0
47 3 45.197173 0.0 -10.0626 0 0 0
48 3 48.4255425 1.8639 -10.0626 0 0 0
49 1 55.95840467 0.0 -8.7796185 0 0 0
50 1 52.73003517 1.8639 -8.7796185 0 0 0
51 2 53.80615834 0.0 -11.3455815 0 0 0
52 2 57.03452784 1.8639 -11.3455815 0 0 0
53 3 51.653912 0.0 -10.0626 0 0 0
54 3 54.8822815 1.8639 -10.0626 0 0 0
55 1 62.41514367 0.0 -8.7796185 0 0 0
56 1 59.18677417 1.8639 -8.7796185 0 0 0
57 2 60.26289734 0.0 -11.3455815 0 0 0
58 2 63.49126684 1.8639 -11.3455815 0 0 0
59 3 58.110651 0.0 -10.0626 0 0 0
60 3 61.3390205 1.8639 -10.0626 0 0 0
61 1 4.304492667 3.7278 -8.7796185 0 0 0
62 1 1.076123167 5.5917 -8.7796185 0 0 0
63 2 2.152246333 3.7278 -11.3455815 0 0 0
64 2 5.380615834 5.5917 -11.3455815 0 0 0
65 3 0.0 3.7278 -10.0626 0 0 0
66 3 3.2283695 5.5917 -10.0626 0 0 0
67 1 10.76123167 3.7278 -8.7796185 0 0 0
68 1 7.532862167 5.5917 -8.7796185 0 0 0
69 2 8.608985334 3.7278 -11.3455815 0 0 0
70 2 11.83735483 5.5917 -11.3455815 0 0 0
71 3 6.456739 3.7278 -10.0626 0 0 0
72 3 9.685108501 5.5917 -10.0626 0 0 0
73 1 17.21797067 3.7278 -8.7796185 0 0 0
74 1 13.98960117 5.5917 -8.7796185 0 0 0
75 2 15.06572433 3.7278 -11.3455815 0 0 0
76 2 18.29409384 5.5917 -11.3455815 0 0 0
77 3 12.913478 3.7278 -10.0626 0 0 0
78 3 16.1418475 5.5917 -10.0626 0 0 0
79 1 23.67470967 3.7278 -8.7796185 0 0 0
80 1 20.44634017 5.5917 -8.7796185 0 0 0
81 2 21.52246334 3.7278 -11.3455815 0 0 0
82 2 24.75083284 5.5917 -11.3455815 0 0 0
83 3 19.370217 3.7278 -10.0626 0 0 0
84 3 22.5985865 5.5917 -10.0626 0 0 0
85 1 30.13144867 3.7278 -8.7796185 0 0 0
86 1 26.90307917 5.5917 -8.7796185 0 0 0
87 2 27.97920234 3.7278 -11.3455815 0 0 0
88 2 31.20757184 5.5917 -11.3455815 0 0 0
89 3 25.826956 3.7278 -10.0626 0 0 0
90 3 29.0553255 5.5917 -10.0626 0 0 0
91 1 36.58818767 3.7278 -8.7796185 0 0 0
92 1 33.35981817 5.5917 -8.7796185 0 0 0
93 2 34.43594134 3.7278 -11.3455815 0 0 0
94 2 37.66431084 5.5917 -11.3455815 0 0 0
95 3 32.283695 3.7278 -10.0626 0 0 0
96 3 35.5120645 5.5917 -10.0626 0 0 0
97 1 43.04492667 3.7278 -8.7796185 0 0 0
98 1 39.81655717 5.5917 -8.7796185 0 0 0
99 2 40.89268034 3.7278 -11.3455815 0 0 0
100 2 44.12104984 5.5917 -11.3455815 0 0 0
101 3 38.740434 3.7278 -10.0626 0 0 0
102 3 41.9688035 5.5917 -10.0626 0 0 0
103 1 49.50166567 3.7278 -8.7796185 0 0 0
104 1 46.27329617 5.5917 -8.7796185 0 0 0
105 2 47.34941934 3.7278 -11.3455815 0 0 0
106 2 50.57778884 5.5917 -11.3455815 0 0 0
107 3 45.197173 3.7278 -10.0626 0 0 0
108 3 48.4255425 5.5917 -10.0626 0 0 0
109 1 55.95840467 3.7278 -8.7796185 0 0 0
110 1 52.73003517 5.5917 -8.7796185 0 0 0
111 2 53.80615834 3.7278 -11.3455815 0 0 0
112 2 57.03452784 5.5917 -11.3455815 0 0 0
113 3 51.653912 3.7278 -10.0626 0 0 0
114 3 54.8822815 5.5917 -10.0626 0 0 0
115 1 62.41514367 3.7278 -8.7796185 0 0 0
116 1 59.18677417 5.5917 -8.7796185 0 0 0
117 2 60.26289734 3.7278 -11.3455815 0 0 0
118 2 63.49126684 5.5917 -11.3455815 0 0 0
119 3 58.110651 3.7278 -10.0626 0 0 0
120 3 61.3390205 5.5917 -10.0626 0 0 0
121 1 4.304492667 7.4556 -8.7796185 0 0 0
122 1 1.076123167 9.3195 -8.7796185 0 0 0
123 2 2.152246333 7.4556 -11.3455815 0 0 0
124 2 5.380615834 9.3195 -11.3455815 0 0 0
125 3 0.0 7.4556 -10.0626 0 0 0
126 3 3.2283695 9.3195 -10.0626 0 0 0
127 1 10.76123167 7.4556 -8.7796185 0 0 0
128 1 7.532862167 9.3195 -8.7796185 0 0 0
129 2 8.608985334 7.4556 -11.3455815 0 0 0
130 2 11.83735483 9.3195 -11.3455815 0 0 0
131 3 6.456739 7.4556 -10.0626 0 0 0
132 3 9.685108501 9.3195 -10.0626 0 0 0
133 1 17.21797067 7.4556 -8.7796185 0 0 0
134 1 13.98960117 9.3195 -8.7796185 0 0 0
135 2 15.06572433 7.4556 -11.3455815 0 0 0
136 2 18.29409384 9.3195 -11.3455815 0 0 0
137 3 12.913478 7.4556 -10.0626 0 0 0
138 3 16.1418475 9.3195 -10.0626 0 0 0
139 1 23.67470967 7.4556 -8.7796185 0 0 0
140 1 20.44634017 9.3195 -8.7796185 0 0 0
141 2 21.52246334 7.4556 -11.3455815 0 0 0
142 2 24.75083284 9.3195 -11.3455815 0 0 0
143 3 19.370217 7.4556 -10.0626 0 0 0
144 3 22.5985865 9.3195 -10.0626 0 0 0
145 1 30.13144867 7.4556 -8.7796185 0 0 0
146 1 26.90307917 9.3195 -8.7796185 0 0 0
147 2 27.97920234 7.4556 -11.3455815 0 0 0
148 2 31.20757184 9.3195 -11.3455815 0 0 0
149 3 25.826956 7.4556 -10.0626 0 0 0
150 3 29.0553255 9.3195 -10.0626 0 0 0
151 1 36.58818767 7.4556 -8.7796185 0 0 0
152 1 33.35981817 9.3195 -8.7796185 0 0 0
153 2 34.43594134 7.4556 -11.3455815 0 0 0
154 2 37.66431084 9.3195 -11.3455815 0 0 0
155 3 32.283695 7.4556 -10.0626 0 0 0
156 3 35.5120645 9.3195 -10.0626 0 0 0
157 1 43.04492667 7.4556 -8.7796185 0 0 0
158 1 39.81655717 9.3195 -8.7796185 0 0 0
159 2 40.89268034 7.4556 -11.3455815 0 0 0
160 2 44.12104984 9.3195 -11.3455815 0 0 0
161 3 38.740434 7.4556 -10.0626 0 0 0
162 3 41.9688035 9.3195 -10.0626 0 0 0
163 1 49.50166567 7.4556 -8.7796185 0 0 0
164 1 46.27329617 9.3195 -8.7796185 0 0 0
165 2 47.34941934 7.4556 -11.3455815 0 0 0
166 2 50.57778884 9.3195 -11.3455815 0 0 0
167 3 45.197173 7.4556 -10.0626 0 0 0
168 3 48.4255425 9.3195 -10.0626 0 0 0
169 1 55.95840467 7.4556 -8.7796185 0 0 0
170 1 52.73003517 9.3195 -8.7796185 0 0 0
171 2 53.80615834 7.4556 -11.3455815 0 0 0
172 2 57.03452784 9.3195 -11.3455815 0 0 0
173 3 51.653912 7.4556 -10.0626 0 0 0
174 3 54.8822815 9.3195 -10.0626 0 0 0
175 1 62.41514367 7.4556 -8.7796185 0 0 0
176 1 59.18677417 9.3195 -8.7796185 0 0 0
177 2 60.26289734 7.4556 -11.3455815 0 0 0
178 2 63.49126684 9.3195 -11.3455815 0 0 0
179 3 58.110651 7.4556 -10.0626 0 0 0
180 3 61.3390205 9.3195 -10.0626 0 0 0
181 1 4.304492667 11.1834 -8.7796185 0 0 0
182 1 1.076123167 13.0473 -8.7796185 0 0 0
183 2 2.152246333 11.1834 -11.3455815 0 0 0
184 2 5.380615834 13.0473 -11.3455815 0 0 0
185 3 0.0 11.1834 -10.0626 0 0 0
186 3 3.2283695 13.0473 -10.0626 0 0 0
187 1 10.76123167 11.1834 -8.7796185 0 0 0
188 1 7.532862167 13.0473 -8.7796185 0 0 0
189 2 8.608985334 11.1834 -11.3455815 0 0 0
190 2 11.83735483 13.0473 -11.3455815 0 0 0
191 3 6.456739 11.1834 -10.0626 0 0 0
192 3 9.685108501 13.0473 -10.0626 0 0 0
193 1 17.21797067 11.1834 -8.7796185 0 0 0
194 1 13.98960117 13.0473 -8.7796185 0 0 0
195 2 15.06572433 11.1834 -11.3455815 0 0 0
196 2 18.29409384 13.0473 -11.3455815 0 0 0
197 3 12.913478 11.1834 -10.0626 0 0 0
198 3 16.1418475 13.0473 -10.0626 0 0 0
199 1 23.67470967 11.1834 -8.7796185 0 0 0
200 1 20.44634017 13.0473 -8.7796185 0 0 0
201 2 21.52246334 11.1834 -11.3455815 0 0 0
202 2 24.75083284 13.0473 -11.3455815 0 0 0
203 3 19.370217 11.1834 -10.0626 0 0 0
204 3 22.5985865 13.0473 -10.0626 0 0 0
205 1 30.13144867 11.1834 -8.7796185 0 0 0
206 1 26.90307917 13.0473 -8.7796185 0 0 0
207 2 27.97920234 11.1834 -11.3455815 0 0 0
208 2 31.20757184 13.0473 -11.3455815 0 0 0
209 3 25.826956 11.1834 -10.0626 0 0 0
210 3 29.0553255 13.0473 -10.0626 0 0 0
211 1 36.58818767 11.1834 -8.7796185 0 0 0
212 1 33.35981817 13.0473 -8.7796185 0 0 0
213 2 34.43594134 11.1834 -11.3455815 0 0 0
214 2 37.66431084 13.0473 -11.3455815 0 0 0
215 3 32.283695 11.1834 -10.0626 0 0 0
216 3 35.5120645 13.0473 -10.0626 0 0 0
217 1 43.04492667 11.1834 -8.7796185 0 0 0
218 1 39.81655717 13.0473 -8.7796185 0 0 0
219 2 40.89268034 11.1834 -11.3455815 0 0 0
220 2 44.12104984 13.0473 -11.3455815 0 0 0
221 3 38.740434 11.1834 -10.0626 0 0 0
222 3 41.9688035 13.0473 -10.0626 0 0 0
223 1 49.50166567 11.1834 -8.7796185 0 0 0
224 1 46.27329617 13.0473 -8.7796185 0 0 0
225 2 47.34941934 11.1834 -11.3455815 0 0 0
226 2 50.57778884 13.0473 -11.3455815 0 0 0
227 3 45.197173 11.1834 -10.0626 0 0 0
228 3 48.4255425 13.0473 -10.0626 0 0 0
229 1 55.95840467 11.1834 -8.7796185 0 0 0
230 1 52.73003517 13.0473 -8.7796185 0 0 0
231 2 53.80615834 11.1834 -11.3455815 0 0 0
232 2 57.03452784 13.0473 -11.3455815 0 0 0
233 3 51.653912 11.1834 -10.0626 0 0 0
234 3 54.8822815 13.0473 -10.0626 0 0 0
235 1 62.41514367 11.1834 -8.7796185 0 0 0
236 1 59.18677417 13.0473 -8.7796185 0 0 0
237 2 60.26289734 11.1834 -11.3455815 0 0 0
238 2 63.49126684 13.0473 -11.3455815 0 0 0
239 3 58.110651 11.1834 -10.0626 0 0 0
240 3 61.3390205 13.0473 -10.0626 0 0 0
241 1 4.304492667 14.9112 -8.7796185 0 0 0
242 1 1.076123167 16.7751 -8.7796185 0 0 0
243 2 2.152246333 14.9112 -11.3455815 0 0 0
244 2 5.380615834 16.7751 -11.3455815 0 0 0
245 3 0.0 14.9112 -10.0626 0 0 0
246 3 3.2283695 16.7751 -10.0626 0 0 0
247 1 10.76123167 14.9112 -8.7796185 0 0 0
248 1 7.532862167 16.7751 -8.7796185 0 0 0
249 2 8.608985334 14.9112 -11.3455815 0 0 0
250 2 11.83735483 16.7751 -11.3455815 0 0 0
251 3 6.456739 14.9112 -10.0626 0 0 0
252 3 9.685108501 16.7751 -10.0626 0 0 0
253 1 17.21797067 14.9112 -8.7796185 0 0 0
254 1 13.98960117 16.7751 -8.7796185 0 0 0
255 2 15.06572433 14.9112 -11.3455815 0 0 0
256 2 18.29409384 16.7751 -11.3455815 0 0 0
257 3 12.913478 14.9112 -10.0626 0 0 0
258 3 16.1418475 16.7751 -10.0626 0 0 0
259 1 23.67470967 14.9112 -8.7796185 0 0 0
260 1 20.44634017 16.7751 -8.7796185 0 0 0
261 2 21.52246334 14.9112 -11.3455815 0 0 0
262 2 24.75083284 16.7751 -11.3455815 0 0 0
263 3 19.370217 14.9112 -10.0626 0 0 0
264 3 22.5985865 16.7751 -10.0626 0 0 0
265 1 30.13144867 14.9112 -8.7796185 0 0 0
266 1 26.90307917 16.7751 -8.7796185 0 0 0
267 2 27.97920234 14.9112 -11.3455815 0 0 0
268 2 31.20757184 16.7751 -11.3455815 0 0 0
269 3 25.826956 14.9112 -10.0626 0 0 0
270 3 29.0553255 16.7751 -10.0626 0 0 0
271 1 36.58818767 14.9112 -8.7796185 0 0 0
272 1 33.35981817 16.7751 -8.7796185 0 0 0
273 2 34.43594134 14.9112 -11.3455815 0 0 0
274 2 37.66431084 16.7751 -11.3455815 0 0 0
275 3 32.283695 14.9112 -10.0626 0 0 0
276 3 35.5120645 16.7751 -10.0626 0 0 0
277 1 43.04492667 14.9112 -8.7796185 0 0 0
278 1 39.81655717 16.7751 -8.7796185 0 0 0
279 2 40.89268034 14.9112 -11.3455815 0 0 0
280 2 44.12104984 16.7751 -11.3455815 0 0 0
281 3 38.740434 14.9112 -10.0626 0 0 0
282 3 41.9688035 16.7751 -10.0626 0 0 0
283 1 49.50166567 14.9112 -8.7796185 0 0 0
284 1 46.27329617 16.7751 -8.7796185 0 0 0
285 2 47.34941934 14.9112 -11.3455815 0 0 0
286 2 50.57778884 16.7751 -11.3455815 0 0 0
287 3 45.197173 14.9112 -10.0626 0 0 0
288 3 48.4255425 16.7751 -10.0626 0 0 0
289 1 55.95840467 14.9112 -8.7796185 0 0 0
290 1 52.73003517 16.7751 -8.7796185 0 0 0
291 2 53.80615834 14.9112 -11.3455815 0 0 0
292 2 57.03452784 16.7751 -11.3455815 0 0 0
293 3 51.653912 14.9112 -10.0626 0 0 0
294 3 54.8822815 16.7751 -10.0626 0 0 0
295 1 62.41514367 14.9112 -8.7796185 0 0 0
296 1 59.18677417 16.7751 -8.7796185 0 0 0
297 2 60.26289734 14.9112 -11.3455815 0 0 0
298 2 63.49126684 16.7751 -11.3455815 0 0 0
299 3 58.110651 14.9112 -10.0626 0 0 0
300 3 61.3390205 16.7751 -10.0626 0 0 0
301 1 4.304492667 18.639 -8.7796185 0 0 0
302 1 1.076123167 20.5029 -8.7796185 0 0 0
303 2 2.152246333 18.639 -11.3455815 0 0 0
304 2 5.380615834 20.5029 -11.3455815 0 0 0
305 3 0.0 18.639 -10.0626 0 0 0
306 3 3.2283695 20.5029 -10.0626 0 0 0
307 1 10.76123167 18.639 -8.7796185 0 0 0
308 1 7.532862167 20.5029 -8.7796185 0 0 0
309 2 8.608985334 18.639 -11.3455815 0 0 0
310 2 11.83735483 20.5029 -11.3455815 0 0 0
311 3 6.456739 18.639 -10.0626 0 0 0
312 3 9.685108501 20.5029 -10.0626 0 0 0
313 1 17.21797067 18.639 -8.7796185 0 0 0
314 1 13.98960117 20.5029 -8.7796185 0 0 0
315 2 15.06572433 18.639 -11.3455815 0 0 0
316 2 18.29409384 20.5029 -11.3455815 0 0 0
317 3 12.913478 18.639 -10.0626 0 0 0
318 3 16.1418475 20.5029 -10.0626 0 0 0
319 1 23.67470967 18.639 -8.7796185 0 0 0
320 1 20.44634017 20.5029 -8.7796185 0 0 0
321 2 21.52246334 18.639 -11.3455815 0 0 0
322 2 24.75083284 20.5029 -11.3455815 0 0 0
323 3 19.370217 18.639 -10.0626 0 0 0
324 3 22.5985865 20.5029 -10.0626 0 0 0
325 1 30.13144867 18.639 -8.7796185 0 0 0
326 1 26.90307917 20.5029 -8.7796185 0 0 0
327 2 27.97920234 18.639 -11.3455815 0 0 0
328 2 31.20757184 20.5029 -11.3455815 0 0 0
329 3 25.826956 18.639 -10.0626 0 0 0
330 3 29.0553255 20.5029 -10.0626 0 0 0
331 1 36.58818767 18.639 -8.7796185 0 0 0
332 1 33.35981817 20.5029 -8.7796185 0 0 0
333 2 34.43594134 18.639 -11.3455815 0 0 0
334 2 37.66431084 20.5029 -11.3455815 0 0 0
335 3 32.283695 18.639 -10.0626 0 0 0
336 3 35.5120645 20.5029 -10.0626 0 0 0
337 1 43.04492667 18.639 -8.7796185 0 0 0
338 1 39.81655717 20.5029 -8.7796185 0 0 0
339 2 40.89268034 18.639 -11.3455815 0 0 0
340 2 44.12104984 20.5029 -11.3455815 0 0 0
341 3 38.740434 18.639 -10.0626 0 0 0
342 3 41.9688035 20.5029 -10.0626 0 0 0
343 1 49.50166567 18.639 -8.7796185 0 0 0
344 1 46.27329617 20.5029 -8.7796185 0 0 0
345 2 47.34941934 18.639 -11.3455815 0 0 0
346 2 50.57778884 20.5029 -11.3455815 0 0 0
347 3 45.197173 18.639 -10.0626 0 0 0
348 3 48.4255425 20.5029 -10.0626 0 0 0
349 1 55.95840467 18.639 -8.7796185 0 0 0
350 1 52.73003517 20.5029 -8.7796185 0 0 0
351 2 53.80615834 18.639 -11.3455815 0 0 0
352 2 57.03452784 20.5029 -11.3455815 0 0 0
353 3 51.653912 18.639 -10.0626 0 0 0
354 3 54.8822815 20.5029 -10.0626 0 0 0
355 1 62.41514367 18.639 -8.7796185 0 0 0
356 1 59.18677417 20.5029 -8.7796185 0 0 0
357 2 60.26289734 18.639 -11.3455815 0 0 0
358 2 63.49126684 20.5029 -11.3455815 0 0 0
359 3 58.110651 18.639 -10.0626 0 0 0
360 3 61.3390205 20.5029 -10.0626 0 0 0
361 1 4.304492667 22.3668 -8.7796185 0 0 0
362 1 1.076123167 24.2307 -8.7796185 0 0 0
363 2 2.152246333 22.3668 -11.3455815 0 0 0
364 2 5.380615834 24.2307 -11.3455815 0 0 0
365 3 0.0 22.3668 -10.0626 0 0 0
366 3 3.2283695 24.2307 -10.0626 0 0 0
367 1 10.76123167 22.3668 -8.7796185 0 0 0
368 1 7.532862167 24.2307 -8.7796185 0 0 0
369 2 8.608985334 22.3668 -11.3455815 0 0 0
370 2 11.83735483 24.2307 -11.3455815 0 0 0
371 3 6.456739 22.3668 -10.0626 0 0 0
372 3 9.685108501 24.2307 -10.0626 0 0 0
373 1 17.21797067 22.3668 -8.7796185 0 0 0
374 1 13.98960117 24.2307 -8.7796185 0 0 0
375 2 15.06572433 22.3668 -11.3455815 0 0 0
376 2 18.29409384 24.2307 -11.3455815 0 0 0
377 3 12.913478 22.3668 -10.0626 0 0 0
378 3 16.1418475 24.2307 -10.0626 0 0 0
379 1 23.67470967 22.3668 -8.7796185 0 0 0
380 1 20.44634017 24.2307 -8.7796185 0 0 0
381 2 21.52246334 22.3668 -11.3455815 0 0 0
382 2 24.75083284 24.2307 -11.3455815 0 0 0
383 3 19.370217 22.3668 -10.0626 0 0 0
384 3 22.5985865 24.2307 -10.0626 0 0 0
385 1 30.13144867 22.3668 -8.7796185 0 0 0
386 1 26.90307917 24.2307 -8.7796185 0 0 0
387 2 27.97920234 22.3668 -11.3455815 0 0 0
388 2 31.20757184 24.2307 -11.3455815 0 0 0
389 3 25.826956 22.3668 -10.0626 0 0 0
390 3 29.0553255 24.2307 -10.0626 0 0 0
391 1 36.58818767 22.3668 -8.7796185 0 0 0
392 1 33.35981817 24.2307 -8.7796185 0 0 0
393 2 34.43594134 22.3668 -11.3455815 0 0 0
394 2 37.66431084 24.2307 -11.3455815 0 0 0
395 3 32.283695 22.3668 -10.0626 0 0 0
396 3 35.5120645 24.2307 -10.0626 0 0 0
397 1 43.04492667 22.3668 -8.7796185 0 0 0
398 1 39.81655717 24.2307 -8.7796185 0 0 0
399 2 40.89268034 22.3668 -11.3455815 0 0 0
400 2 44.12104984 24.2307 -11.3455815 0 0 0
401 3 38.740434 22.3668 -10.0626 0 0 0
402 3 41.9688035 24.2307 -10.0626 0 0 0
403 1 49.50166567 22.3668 -8.7796185 0 0 0
404 1 46.27329617 24.2307 -8.7796185 0 0 0
405 2 47.34941934 22.3668 -11.3455815 0 0 0
406 2 50.57778884 24.2307 -11.3455815 0 0 0
407 3 45.197173 22.3668 -10.0626 0 0 0
408 3 48.4255425 24.2307 -10.0626 0 0 0
409 1 55.95840467 22.3668 -8.7796185 0 0 0
410 1 52.73003517 24.2307 -8.7796185 0 0 0
411 2 53.80615834 22.3668 -11.3455815 0 0 0
412 2 57.03452784 24.2307 -11.3455815 0 0 0
413 3 51.653912 22.3668 -10.0626 0 0 0
414 3 54.8822815 24.2307 -10.0626 0 0 0
415 1 62.41514367 22.3668 -8.7796185 0 0 0
416 1 59.18677417 24.2307 -8.7796185 0 0 0
417 2 60.26289734 22.3668 -11.3455815 0 0 0
418 2 63.49126684 24.2307 -11.3455815 0 0 0
419 3 58.110651 22.3668 -10.0626 0 0 0
420 3 61.3390205 24.2307 -10.0626 0 0 0
421 1 4.304492667 26.0946 -8.7796185 0 0 0
422 1 1.076123167 27.9585 -8.7796185 0 0 0
423 2 2.152246333 26.0946 -11.3455815 0 0 0
424 2 5.380615834 27.9585 -11.3455815 0 0 0
425 3 0.0 26.0946 -10.0626 0 0 0
426 3 3.2283695 27.9585 -10.0626 0 0 0
427 1 10.76123167 26.0946 -8.7796185 0 0 0
428 1 7.532862167 27.9585 -8.7796185 0 0 0
429 2 8.608985334 26.0946 -11.3455815 0 0 0
430 2 11.83735483 27.9585 -11.3455815 0 0 0
431 3 6.456739 26.0946 -10.0626 0 0 0
432 3 9.685108501 27.9585 -10.0626 0 0 0
433 1 17.21797067 26.0946 -8.7796185 0 0 0
434 1 13.98960117 27.9585 -8.7796185 0 0 0
435 2 15.06572433 26.0946 -11.3455815 0 0 0
436 2 18.29409384 27.9585 -11.3455815 0 0 0
437 3 12.913478 26.0946 -10.0626 0 0 0
438 3 16.1418475 27.9585 -10.0626 0 0 0
439 1 23.67470967 26.0946 -8.7796185 0 0 0
440 1 20.44634017 27.9585 -8.7796185 0 0 0
441 2 21.52246334 26.0946 -11.3455815 0 0 0
442 2 24.75083284 27.9585 -11.3455815 0 0 0
443 3 19.370217 26.0946 -10.0626 0 0 0
444 3 22.5985865 27.9585 -10.0626 0 0 0
445 1 30.13144867 26.0946 -8.7796185 0 0 0
446 1 26.90307917 27.9585 -8.7796185 0 0 0
447 2 27.97920234 26.0946 -11.3455815 0 0 0
448 2 31.20757184 27.9585 -11.3455815 0 0 0
449 3 25.826956 26.0946 -10.0626 0 0 0
450 3 29.0553255 27.9585 -10.0626 0 0 0
451 1 36.58818767 26.0946 -8.7796185 0 0 0
452 1 33.35981817 27.9585 -8.7796185 0 0 0
453 2 34.43594134 26.0946 -11.3455815 0 0 0
454 2 37.66431084 27.9585 -11.3455815 0 0 0
455 3 32.283695 26.0946 -10.0626 0 0 0
456 3 35.5120645 27.9585 -10.0626 0 0 0
457 1 43.04492667 26.0946 -8.7796185 0 0 0
458 1 39.81655717 27.9585 -8.7796185 0 0 0
459 2 40.89268034 26.0946 -11.3455815 0 0 0
460 2 44.12104984 27.9585 -11.3455815 0 0 0
461 3 38.740434 26.0946 -10.0626 0 0 0
462 3 41.9688035 27.9585 -10.0626 0 0 0
463 1 49.50166567 26.0946 -8.7796185 0 0 0
464 1 46.27329617 27.9585 -8.7796185 0 0 0
465 2 47.34941934 26.0946 -11.3455815 0 0 0
466 2 50.57778884 27.9585 -11.3455815 0 0 0
467 3 45.197173 26.0946 -10.0626 0 0 0
468 3 48.4255425 27.9585 -10.0626 0 0 0
469 1 55.95840467 26.0946 -8.7796185 0 0 0
470 1 52.73003517 27.9585 -8.7796185 0 0 0
471 2 53.80615834 26.0946 -11.3455815 0 0 0
472 2 57.03452784 27.9585 -11.3455815 0 0 0
473 3 51.653912 26.0946 -10.0626 0 0 0
474 3 54.8822815 27.9585 -10.0626 0 0 0
475 1 62.41514367 26.0946 -8.7796185 0 0 0
476 1 59.18677417 27.9585 -8.7796185 0 0 0
477 2 60.26289734 26.0946 -11.3455815 0 0 0
478 2 63.49126684 27.9585 -11.3455815 0 0 0
479 3 58.110651 26.0946 -10.0626 0 0 0
480 3 61.3390205 27.9585 -10.0626 0 0 0
481 1 4.304492667 29.8224 -8.7796185 0 0 0
482 1 1.076123167 31.6863 -8.7796185 0 0 0
483 2 2.152246333 29.8224 -11.3455815 0 0 0
484 2 5.380615834 31.6863 -11.3455815 0 0 0
485 3 0.0 29.8224 -10.0626 0 0 0
486 3 3.2283695 31.6863 -10.0626 0 0 0
487 1 10.76123167 29.8224 -8.7796185 0 0 0
488 1 7.532862167 31.6863 -8.7796185 0 0 0
489 2 8.608985334 29.8224 -11.3455815 0 0 0
490 2 11.83735483 31.6863 -11.3455815 0 0 0
491 3 6.456739 29.8224 -10.0626 0 0 0
492 3 9.685108501 31.6863 -10.0626 0 0 0
493 1 17.21797067 29.8224 -8.7796185 0 0 0
494 1 13.98960117 31.6863 -8.7796185 0 0 0
495 2 15.06572433 29.8224 -11.3455815 0 0 0
496 2 18.29409384 31.6863 -11.3455815 0 0 0
497 3 12.913478 29.8224 -10.0626 0 0 0
498 3 16.1418475 31.6863 -10.0626 0 0 0
499 1 23.67470967 29.8224 -8.7796185 0 0 0
500 1 20.44634017 31.6863 -8.7796185 0 0 0
501 2 21.52246334 29.8224 -11.3455815 0 0 0
502 2 24.75083284 31.6863 -11.3455815 0 0 0
503 3 19.370217 29.8224 -10.0626 0 0 0
504 3 22.5985865 31.6863 -10.0626 0 0 0
505 1 30.13144867 29.8224 -8.7796185 0 0 0
506 1 26.90307917 31.6863 -8.7796185 0 0 0
507 2 27.97920234 29.8224 -11.3455815 0 0 0
508 2 31.20757184 31.6863 -11.3455815 0 0 0
509 3 25.826956 29.8224 -10.0626 0 0 0
510 3 29.0553255 31.6863 -10.0626 0 0 0
511 1 36.58818767 29.8224 -8.7796185 0 0 0
512 1 33.35981817 31.6863 -8.7796185 0 0 0
513 2 34.43594134 29.8224 -11.3455815 0 0 0
514 2 37.66431084 31.6863 -11.3455815 0 0 0
515 3 32.283695 29.8224 -10.0626 0 0 0
516 3 35.5120645 31.6863 -10.0626 0 0 0
517 1 43.04492667 29.8224 -8.7796185 0 0 0
518 1 39.81655717 31.6863 -8.7796185 0 0 0
519 2 40.89268034 29.8224 -11.3455815 0 0 0
520 2 44.12104984 31.6863 -11.3455815 0 0 0
521 3 38.740434 29.8224 -10.0626 0 0 0
522 3 41.9688035 31.6863 -10.0626 0 0 0
523 1 49.50166567 29.8224 -8.7796185 0 0 0
524 1 46.27329617 31.6863 -8.7796185 0 0 0
525 2 47.34941934 29.8224 -11.3455815 0 0 0
526 2 50.57778884 31.6863 -11.3455815 0 0 0
527 3 45.197173 29.8224 -10.0626 0 0 0
528 3 48.4255425 31.6863 -10.0626 0 0 0
529 1 55.95840467 29.8224 -8.7796185 0 0 0
530 1 52.73003517 31.6863 -8.7796185 0 0 0
531 2 53.80615834 29.8224 -11.3455815 0 0 0
532 2 57.03452784 31.6863 -11.3455815 0 0 0
533 3 51.653912 29.8224 -10.0626 0 0 0
534 3 54.8822815 31.6863 -10.0626 0 0 0
535 1 62.41514367 29.8224 -8.7796185 0 0 0
536 1 59.18677417 31.6863 -8.7796185 0 0 0
537 2 60.26289734 29.8224 -11.3455815 0 0 0
538 2 63.49126684 31.6863 -11.3455815 0 0 0
539 3 58.110651 29.8224 -10.0626 0 0 0
540 3 61.3390205 31.6863 -10.0626 0 0 0
541 1 4.304492667 33.5502 -8.7796185 0 0 0
542 1 1.076123167 35.4141 -8.7796185 0 0 0
543 2 2.152246333 33.5502 -11.3455815 0 0 0
544 2 5.380615834 35.4141 -11.3455815 0 0 0
545 3 0.0 33.5502 -10.0626 0 0 0
546 3 3.2283695 35.4141 -10.0626 0 0 0
547 1 10.76123167 33.5502 -8.7796185 0 0 0
548 1 7.532862167 35.4141 -8.7796185 0 0 0
549 2 8.608985334 33.5502 -11.3455815 0 0 0
550 2 11.83735483 35.4141 -11.3455815 0 0 0
551 3 6.456739 33.5502 -10.0626 0 0 0
552 3 9.685108501 35.4141 -10.0626 0 0 0
553 1 17.21797067 33.5502 -8.7796185 0 0 0
554 1 13.98960117 35.4141 -8.7796185 0 0 0
555 2 15.06572433 33.5502 -11.3455815 0 0 0
556 2 18.29409384 35.4141 -11.3455815 0 0 0
557 3 12.913478 33.5502 -10.0626 0 0 0
558 3 16.1418475 35.4141 -10.0626 0 0 0
559 1 23.67470967 33.5502 -8.7796185 0 0 0
560 1 20.44634017 35.4141 -8.7796185 0 0 0
561 2 21.52246334 33.5502 -11.3455815 0 0 0
562 2 24.75083284 35.4141 -11.3455815 0 0 0
563 3 19.370217 33.5502 -10.0626 0 0 0
564 3 22.5985865 35.4141 -10.0626 0 0 0
565 1 30.13144867 33.5502 -8.7796185 0 0 0
566 1 26.90307917 35.4141 -8.7796185 0 0 0
567 2 27.97920234 33.5502 -11.3455815 0 0 0
568 2 31.20757184 35.4141 -11.3455815 0 0 0
569 3 25.826956 33.5502 -10.0626 0 0 0
570 3 29.0553255 35.4141 -10.0626 0 0 0
571 1 36.58818767 33.5502 -8.7796185 0 0 0
572 1 33.35981817 35.4141 -8.7796185 0 0 0
573 2 34.43594134 33.5502 -11.3455815 0 0 0
574 2 37.66431084 35.4141 -11.3455815 0 0 0
575 3 32.283695 33.5502 -10.0626 0 0 0
576 3 35.5120645 35.4141 -10.0626 0 0 0
577 1 43.04492667 33.5502 -8.7796185 0 0 0
578 1 39.81655717 35.4141 -8.7796185 0 0 0
579 2 40.89268034 33.5502 -11.3455815 0 0 0
580 2 44.12104984 35.4141 -11.3455815 0 0 0
581 3 38.740434 33.5502 -10.0626 0 0 0
582 3 41.9688035 35.4141 -10.0626 0 0 0
583 1 49.50166567 33.5502 -8.7796185 0 0 0
584 1 46.27329617 35.4141 -8.7796185 0 0 0
585 2 47.34941934 33.5502 -11.3455815 0 0 0
586 2 50.57778884 35.4141 -11.3455815 0 0 0
587 3 45.197173 33.5502 -10.0626 0 0 0
588 3 48.4255425 35.4141 -10.0626 0 0 0
589 1 55.95840467 33.5502 -8.7796185 0 0 0
590 1 52.73003517 35.4141 -8.7796185 0 0 0
591 2 53.80615834 33.5502 -11.3455815 0 0 0
592 2 57.03452784 35.4141 -11.3455815 0 0 0
593 3 51.653912 33.5502 -10.0626 0 0 0
594 3 54.8822815 35.4141 -10.0626 0 0 0
595 1 62.41514367 33.5502 -8.7796185 0 0 0
596 1 59.18677417 35.4141 -8.7796185 0 0 0
597 2 60.26289734 33.5502 -11.3455815 0 0 0
598 2 63.49126684 35.4141 -11.3455815 0 0 0
599 3 58.110651 33.5502 -10.0626 0 0 0
600 3 61.3390205 35.4141 -10.0626 0 0 0
601 4 4.304492667 0.0 -3.7483185 0 0 0
602 4 1.076123167 1.8639 -3.7483185 0 0 0
603 5 2.152246333 0.0 -6.3142815 0 0 0
604 5 5.380615834 1.8639 -6.3142815 0 0 0
605 6 0.0 0.0 -5.0313 0 0 0
606 6 3.2283695 1.8639 -5.0313 0 0 0
607 4 10.76123167 0.0 -3.7483185 0 0 0
608 4 7.532862167 1.8639 -3.7483185 0 0 0
609 5 8.608985334 0.0 -6.3142815 0 0 0
610 5 11.83735483 1.8639 -6.3142815 0 0 0
611 6 6.456739 0.0 -5.0313 0 0 0
612 6 9.685108501 1.8639 -5.0313 0 0 0
613 4 17.21797067 0.0 -3.7483185 0 0 0
614 4 13.98960117 1.8639 -3.7483185 0 0 0
615 5 15.06572433 0.0 -6.3142815 0 0 0
616 5 18.29409384 1.8639 -6.3142815 0 0 0
617 6 12.913478 0.0 -5.0313 0 0 0
618 6 16.1418475 1.8639 -5.0313 0 0 0
619 4 23.67470967 0.0 -3.7483185 0 0 0
620 4 20.44634017 1.8639 -3.7483185 0 0 0
621 5 21.52246334 0.0 -6.3142815 0 0 0
622 5 24.75083284 1.8639 -6.3142815 0 0 0
623 6 19.370217 0.0 -5.0313 0 0 0
624 6 22.5985865 1.8639 -5.0313 0 0 0
625 4 30.13144867 0.0 -3.7483185 0 0 0
626 4 26.90307917 1.8639 -3.7483185 0 0 0
627 5 27.97920234 0.0 -6.3142815 0 0 0
628 5 31.20757184 1.8639 -6.3142815 0 0 0
629 6 25.826956 0.0 -5.0313 0 0 0
630 6 29.0553255 1.8639 -5.0313 0 0 0
631 4 36.58818767 0.0 -3.7483185 0 0 0
632 4 33.35981817 1.8639 -3.7483185 0 0 0
633 5 34.43594134 0.0 -6.3142815 0 0 0
634 5 37.66431084 1.8639 -6.3142815 0 0 0
635 6 32.283695 0.0 -5.0313 0 0 0
636 6 35.5120645 1.8639 -5.0313 0 0 0
637 4 43.04492667 0.0 -3.7483185 0 0 0
638 4 39.81655717 1.8639 -3.7483185 0 0 0
639 5 40.89268034 0.0 -6.3142815 0 0 0
640 5 44.12104984 1.8639 -6.3142815 0 0 0
641 6 38.740434 0.0 -5.0313 0 0 0
642 6 41.9688035 1.8639 -5.0313 0 0 0
643 4 49.50166567 0.0 -3.7483185 0 0 0
644 4 46.27329617 1.8639 -3.7483185 0 0 0
645 5 47.34941934 0.0 -6.3142815 0 0 0
646 5 50.57778884 1.8639 -6.3142815 0 0 0
647 6 45.197173 0.0 -5.0313 0 0 0
648 6 48.4255425 1.8639 -5.0313 0 0 0
649 4 55.95840467 0.0 -3.7483185 0 0 0
650 4 52.73003517 1.8639 -3.7483185 0 0 0
651 5 53.80615834 0.0 -6.3142815 0 0 0
652 5 57.03452784 1.8639 -6.3142815 0 0 0
653 6 51.653912 0.0 -5.0313 0 0 0
654 6 54.8822815 1.8639 -5.0313 0 0 0
655 4 62.41514367 0.0 -3.7483185 0 0 0
656 4 59.18677417 1.8639 -3.7483185 0 0 0
657 5 60.26289734 0.0 -6.3142815 0 0 0
658 5 63.49126684 1.8639 -6.3142815 0 0 0
659 6 58.110651 0.0 -5.0313 0 0 0
660 6 61.3390205 1.8639 -5.0313 0 0 0
661 4 4.304492667 3.7278 -3.7483185 0 0 0
662 4 1.076123167 5.5917 -3.7483185 0 0 0
663 5 2.152246333 3.7278 -6.3142815 0 0 0
664 5 5.380615834 5.5917 -6.3142815 0 0 0
665 6 0.0 3.7278 -5.0313 0 0 0
666 6 3.2283695 5.5917 -5.0313 0 0 0
667 4 10.76123167 3.7278 -3.7483185 0 0 0
668 4 7.532862167 5.5917 -3.7483185 0 0 0
669 5 8.608985334 3.7278 -6.3142815 0 0 0
670 5 11.83735483 5.5917 -6.3142815 0 0 0
671 6 6.456739 3.7278 -5.0313 0 0 0
672 6 9.685108501 5.5917 -5.0313 0 0 0
673 4 17.21797067 3.7278 -3.7483185 0 0 0
674 4 13.98960117 5.5917 -3.7483185 0 0 0
675 5 15.06572433 3.7278 -6.3142815 0 0 0
676 5 18.29409384 5.5917 -6.3142815 0 0 0
677 6 12.913478 3.7278 -5.0313 0 0 0
678 6 16.1418475 5.5917 -5.0313 0 0 0
679 4 23.67470967 3.7278 -3.7483185 0 0 0
680 4 20.44634017 5.5917 -3.7483185 0 0 0
681 5 21.52246334 3.7278 -6.3142815 0 0 0
682 5 24.75083284 5.5917 -6.3142815 0 0 0
683 6 19.370217 3.7278 -5.0313 0 0 0
684 6 22.5985865 5.5917 -5.0313 0 0 0
685 4 30.13144867 3.7278 -3.7483185 0 0 0
686 4 26.90307917 5.5917 -3.7483185 0 0 0
687 5 27.97920234 3.7278 -6.3142815 0 0 0
688 5 31.20757184 5.5917 -6.3142815 0 0 0
689 6 25.826956 3.7278 -5.0313 0 0 0
690 6 29.0553255 5.5917 -5.0313 0 0 0
691 4 36.58818767 3.7278 -3.7483185 0 0 0
692 4 33.35981817 5.5917 -3.7483185 0 0 0
693 5 34.43594134 3.7278 -6.3142815 0 0 0
694 5 37.66431084 5.5917 -6.3142815 0 0 0
695 6 32.283695 3.7278 -5.0313 0 0 0
696 6 35.5120645 5.5917 -5.0313 0 0 0
697 4 43.04492667 3.7278 -3.7483185 0 0 0
698 4 39.81655717 5.5917 -3.7483185 0 0 0
699 5 40.89268034 3.7278 -6.3142815 0 0 0
700 5 44.12104984 5.5917 -6.3142815 0 0 0
701 6 38.740434 3.7278 -5.0313 0 0 0
702 6 41.9688035 5.5917 -5.0313 0 0 0
703 4 49.50166567 3.7278 -3.7483185 0 0 0
704 4 46.27329617 5.5917 -3.7483185 0 0 0
705 5 47.34941934 3.7278 -6.3142815 0 0 0
706 5 50.57778884 5.5917 -6.3142815 0 0 0
707 6 45.197173 3.7278 -5.0313 0 0 0
708 6 48.4255425 5.5917 -5.0313 0 0 0
709 4 55.95840467 3.7278 -3.7483185 0 0 0
710 4 52.73003517 5.5917 -3.7483185 0 0 0
711 5 53.80615834 3.7278 -6.3142815 0 0 0
712 5 57.03452784 5.5917 -6.3142815 0 0 0
713 6 51.653912 3.7278 -5.0313 0 0 0
714 6 54.8822815 5.5917 -5.0313 0 0 0
715 4 62.41514367 3.7278 -3.7483185 0 0 0
716 4 59.18677417 5.5917 -3.7483185 0 0 0
717 5 60.26289734 3.7278 -6.3142815 0 0 0
718 5 63.49126684 5.5917 -6.3142815 0 0 0
719 6 58.110651 3.7278 -5.0313 0 0 0
720 6 61.3390205 5.5917 -5.0313 0 0 0