LAMMPS data file via write_data, version 2 Aug 2023, timestep = 500046, units = metal

9000 atoms
15 atom types

-65.105466581 128.596733419 xlo xhi
-0.93195 36.34605 ylo yhi
-27.57825 27.57825 zlo zhi

Masses

1 78.95999999999999
2 78.95999999999999
3 195.09
4 78.95999999999999
5 78.95999999999999
6 195.09
7 78.95999999999999
8 78.95999999999999
9 195.09
10 78.95999999999999
11 78.95999999999999
12 195.09
13 78.95999999999999
14 78.95999999999999
15 195.09

Atoms # atomic

1 1 -60.26057909992586 -0.050661232936187114 -10.356365065583914 0 0 0
2 1 -63.49132358096605 1.863900000001728 -10.33562019490188 0 0 0
3 2 -62.41541902736035 2.6737844782476033e-12 -12.81500362348062 0 0 0
4 2 -59.170401885347474 1.9150454705899758 -12.802013860574593 0 0 0
5 3 -64.56738081009733 2.960852623569495e-12 -11.575810058463638 0 0 0
6 3 -61.291182875101974 1.8959168908395714 -11.502200673927467 0 0 0
8 1 -57.02025934296293 1.783995919358212 -10.413984648366592 0 0 0
11 3 -58.17250686940272 0.007977980589794747 -11.668462999545758 0 0 0
61 1 -60.184738607462386 3.728423183438059 -10.247330202208481 0 0 0
63 2 -62.41541902736046 3.7278000000010127 -12.815003623484058 0 0 0
65 3 -64.56738081009891 3.72779999999957 -11.575810058466617 0 0 0
71 3 -58.09597963827812 3.6907056096841035 -11.60736993744487 0 0 0
603 5 -62.41551465635634 9.780890049010116e-13 -7.013184840617489 0 0 0
663 5 -62.41551465635483 3.727800000001722 -7.013184840621028 0 0 0
604 5 -59.209698177825736 1.8963790213612068 -6.993733027962078 0 0 0
7 1 -53.94053029115876 -0.12612627868948859 -10.689724713098745 0 0 0
9 2 -56.0985690420736 -0.03709020405880584 -13.08251460642458 0 0 0
10 2 -52.91350276862384 1.7981680065623555 -13.006923657781616 0 0 0
12 3 -55.028614185640016 1.7918551642620455 -11.809621826329892 0 0 0
14 1 -50.73060015236731 1.8570324076947224 -10.570609953075087 0 0 0
15 2 -49.71359461307687 0.0362389300836373 -12.993489874307265 0 0 0
17 3 -51.79077656990743 -0.08951100007078883 -11.775870277762614 0 0 0
18 3 -48.55961650854367 1.880729912145657 -11.814452306239279 0 0 0
67 1 -53.92088844282574 3.650672287338837 -10.658138469827417 0 0 0
69 2 -56.05835991073168 3.693791368834499 -13.01417088955261 0 0 0
75 2 -49.61062124939348 3.655603727992033 -13.111428455279754 0 0 0
77 3 -51.75654350620218 3.7227541093327776 -11.880990399606949 0 0 0
610 5 -52.67932857915185 1.6615255157621234 -7.199407022002965 0 0 0
669 5 -55.990331578851944 3.601275547218672 -7.031214377074878 0 0 0
609 5 -55.8666725142059 -0.1339874681495045 -7.117580109304923 0 0 0
615 5 -49.488024787792135 -0.03394717808148014 -7.243637755984562 0 0 0
675 5 -49.48808525869439 3.6555092938814244 -7.217083034651476 0 0 0
73 1 -47.511891128110605 3.7953867096459666 -10.600543548745623 0 0 0
62 1 -63.491323580963716 5.591699999999238 -10.335620194901903 0 0 0
64 2 -59.26360882822441 5.499390639209382 -12.852390133256568 0 0 0
66 3 -61.274128644828046 5.625891244307988 -11.504093561497273 0 0 0
68 1 -56.99418189002858 5.654515016088353 -10.449576771555602 0 0 0
121 1 -60.160885577284816 7.525691950877647 -10.33054448018895 0 0 0
122 1 -63.49132358096064 9.319499999999111 -10.33562019490386 0 0 0
123 2 -62.41541902735787 7.455599999998382 -12.815003623485353 0 0 0
124 2 -59.23154197881059 9.29378659631868 -12.928502481880638 0 0 0
125 3 -64.56738081009624 7.455599999999501 -11.57581005846585 0 0 0
126 3 -61.304911422389644 9.282302541159808 -11.595346391712196 0 0 0
128 1 -56.94984647568213 9.25687291555539 -10.537675320750152 0 0 0
131 3 -58.12695836370036 7.465088502759455 -11.733864404284883 0 0 0
181 1 -60.25509850555856 11.159839279996845 -10.418282981293789 0 0 0
183 2 -62.41541902735493 11.183399999998159 -12.815003623482895 0 0 0
185 3 -64.56738081009537 11.183399999999466 -11.57581005846301 0 0 0
191 3 -58.170416149507965 11.144589538116934 -11.772586037618733 0 0 0
723 5 -62.41551465635865 7.4555999999990705 -7.013184840621112 0 0 0
783 5 -62.41551465635536 11.183399999999397 -7.0131848406204504 0 0 0
724 5 -59.05961461285148 9.236946008004987 -6.963029895471747 0 0 0
664 5 -59.262934890245766 5.520048834569937 -6.9890439866488085 0 0 0
70 2 -52.861188397340584 5.526393678559315 -13.147818121075156 0 0 0
72 3 -54.954815111169566 5.588841294477769 -11.89008090050094 0 0 0
74 1 -50.809558126793675 5.63761140699425 -10.604495267662736 0 0 0
78 3 -48.62543130922173 5.617557611130061 -11.93408571993933 0 0 0
127 1 -53.86039106427121 7.408130511004957 -10.662020834595632 0 0 0
129 2 -56.08085043144913 7.607802609687687 -13.097906710657174 0 0 0
130 2 -52.75973655693332 9.376968409111099 -13.233268731167197 0 0 0
132 3 -54.89626695047998 9.38130057554908 -11.869915755766923 0 0 0
134 1 -50.62792076847039 9.26670598956782 -10.726198774496648 0 0 0
135 2 -49.596822670359465 7.39833695434315 -13.324379281324187 0 0 0
137 3 -51.743520917495374 7.493789100465126 -12.013195630261642 0 0 0
138 3 -48.543161925958955 9.240748602204347 -12.033042532357324 0 0 0
187 1 -53.844986574795826 11.205401890927101 -10.549569241355467 0 0 0
189 2 -55.995091245884346 11.25707711507205 -13.045294077176658 0 0 0
195 2 -49.63756334969141 11.23751327943717 -13.202554759889967 0 0 0
197 3 -51.751589500456575 11.220612306755582 -11.938520333043831 0 0 0
729 5 -55.942803903832626 7.239714654521621 -7.123246590660131 0 0 0
789 5 -55.902935514441275 11.065550339950779 -6.996558941855378 0 0 0
670 5 -52.86116136012051 5.431288103636198 -7.23898194365224 0 0 0
730 5 -52.81536387371118 9.129319378583336 -7.1898789864920385 0 0 0
795 5 -49.49692595750713 11.031990603247781 -7.168349009135585 0 0 0
735 5 -49.58421439054021 7.345045778319937 -7.13021624115541 0 0 0
133 1 -47.572239199772476 7.42493903509441 -10.679569322302987 0 0 0
182 1 -63.491323580963844 13.047299999999321 -10.335620194900994 0 0 0
184 2 -59.34526195513795 12.979960612027389 -12.956901746472791 0 0 0
186 3 -61.34864955026734 12.996738997270537 -11.588250781919836 0 0 0
188 1 -57.02157810981572 13.075568552180629 -10.576334453335017 0 0 0
241 1 -60.168016479181425 14.876319677084192 -10.402885748277564 0 0 0
242 1 -63.49132358096547 16.775099999999753 -10.33562019490112 0 0 0
243 2 -62.41541902735842 14.911200000001395 -12.815003623482546 0 0 0
244 2 -59.216076012656146 16.77685239861297 -13.075294645921268 0 0 0
245 3 -64.56738081009813 14.911199999999702 -11.575810058464597 0 0 0
246 3 -61.34501297242508 16.799038342331457 -11.62174545231858 0 0 0
248 1 -56.96613885185812 16.685665327081963 -10.575475302682975 0 0 0
251 3 -58.12828483865616 14.893735751456267 -11.813081887781163 0 0 0
843 5 -62.41551465635377 14.911199999997443 -7.013184840617122 0 0 0
844 5 -59.21338513250883 16.762985858743754 -7.076861009538251 0 0 0
784 5 -59.183655019107256 12.972568798723833 -6.945456038295273 0 0 0
190 2 -52.77217190461073 13.151208993899466 -13.163052955590697 0 0 0
192 3 -54.82628411464818 13.026551774121822 -11.909701528605286 0 0 0
194 1 -50.695275676426355 13.05709865578554 -10.731290716543967 0 0 0
198 3 -48.579861371200025 13.006401559502194 -11.933332527762811 0 0 0
247 1 -53.81349700285706 14.897321490973939 -10.657515076537782 0 0 0
249 2 -56.04707190866229 14.844518803336214 -13.15770873839653 0 0 0
250 2 -52.864813544537924 16.7604072359769 -13.201189795381685 0 0 0
252 3 -54.90374341022337 16.69568513680383 -11.958451578102594 0 0 0
254 1 -50.60670261077037 16.757196090668145 -10.785845894547295 0 0 0
255 2 -49.61194219191386 14.914360584470643 -13.228205640143905 0 0 0
257 3 -51.71461239080735 14.89584994540819 -11.979008957507993 0 0 0
258 3 -48.448461852800136 16.74146930279027 -12.057771775644596 0 0 0
849 5 -55.98552068987277 14.94909936494586 -7.016687157368065 0 0 0
790 5 -52.71366003278212 12.968571199412938 -7.087637284116125 0 0 0
850 5 -52.826253984009355 16.712906370081104 -7.206945066340671 0 0 0
855 5 -49.52679171462425 14.806013569821044 -7.119772752611949 0 0 0
601 4 -60.252612569254254 -0.050213240239676334 -4.56106387160851 0 0 0
602 4 -63.49132155736656 1.8639000000017605 -4.534524731950784 0 0 0
605 6 -64.56728426437176 1.4773491673908173e-12 -5.773910553827776 0 0 0
606 6 -61.35116239888234 1.8509061924399628 -5.729391758435975 0 0 0
608 4 -56.963859874746326 1.8449152608165738 -4.633768560056156 0 0 0
611 6 -58.096482643069756 -0.0389972817869841 -5.748393150511722 0 0 0
661 4 -60.288743980863494 3.785097470219452 -4.548906553602654 0 0 0
665 6 -64.56728426436975 3.7278000000015252 -5.773910553829021 0 0 0
671 6 -58.13371009946156 3.68426522987323 -5.809159307193891 0 0 0
1203 8 -62.415508677349045 9.357181882615037e-13 -1.2390509213242589 0 0 0
1204 8 -59.299548807096535 1.8780444036988337 -1.1908242474067443 0 0 0
1263 8 -62.415508677345656 3.7277999999992057 -1.2390509213239287 0 0 0
1205 9 -64.56732192355175 8.062794381722361e-13 -5.7599015548367236e-05 0 0 0
1265 9 -64.56732192354725 3.727799999998705 -5.759901230410636e-05 0 0 0
1211 9 -58.11635253231576 0.04746719550834736 -0.12867835730582095 0 0 0
1271 9 -58.11077068530556 3.683613619441631 -0.03809410446915138 0 0 0
1217 9 -51.46507011316913 0.06512035244075876 -0.1676247716303456 0 0 0
607 4 -53.73290063364376 -0.023056049489891043 -4.666618546877583 0 0 0
612 6 -54.80992959887091 1.7170014855705402 -5.947644841048773 0 0 0
614 4 -50.55899333599483 1.7633098033671446 -4.800678764635307 0 0 0
617 6 -51.624586170927195 -0.16328510433376325 -5.938564913455989 0 0 0
618 6 -48.35079841552334 1.8150557556854483 -5.917483829334978 0 0 0
667 4 -53.74046083733409 3.5845990702483754 -4.644311132574597 0 0 0
677 6 -51.66566711910349 3.5865665679707313 -5.993601203515612 0 0 0
1209 8 -55.98872151694982 -0.004603624098789245 -1.4125174878578741 0 0 0
1210 8 -52.60019708467415 1.9238388116419938 -1.4537558303366167 0 0 0
1215 8 -49.23555820412134 0.03372816555214451 -1.3551607432544697 0 0 0
1269 8 -55.98676242718372 3.7251932350498342 -1.4085340120951153 0 0 0
1275 8 -49.52135026748187 3.7782259320758818 -1.283735206424542 0 0 0
1218 9 -48.3679802357844 1.948208218520294 -0.0861886244766702 0 0 0
1277 9 -51.59141079147197 3.7644397549993074 -0.10611509496495923 0 0 0
1212 9 -54.82980133132123 1.8036820325518426 -0.2319826172936985 0 0 0
662 4 -63.491321557366945 5.59169999999868 -4.534524731950054 0 0 0
666 6 -61.38212671097533 5.650471622046226 -5.806074690226858 0 0 0
668 4 -57.05947937275091 5.411297145059877 -4.5121920824601665 0 0 0
721 4 -60.210689848558 7.3865433295386795 -4.445777609407857 0 0 0
722 4 -63.491321557365204 9.319499999999298 -4.534524731951153 0 0 0
725 6 -64.56728426437375 7.455600000001004 -5.773910553828701 0 0 0
726 6 -61.27862940768602 9.319411976223975 -5.732619789178104 0 0 0
728 4 -56.960674527538785 9.158238104226042 -4.5565684175792835 0 0 0
731 6 -58.07885406305958 7.301116600632793 -5.753124295772889 0 0 0
781 4 -60.11056897842635 11.22728368263111 -4.455228328051594 0 0 0
785 6 -64.56728426437121 11.183399999997327 -5.77391055382676 0 0 0
791 6 -57.99615236588109 11.164846200835589 -5.770086855592465 0 0 0
1264 8 -59.20452815642916 5.603061133843773 -1.2534329600760554 0 0 0
1323 8 -62.41550867734754 7.455599999998689 -1.2390509213283487 0 0 0
1324 8 -59.1579078750732 9.370301310206145 -1.2627189871890476 0 0 0
1383 8 -62.41550867734725 11.18340000000184 -1.2390509213255156 0 0 0
1385 9 -64.56732192355139 11.183399999998585 -5.7599014526193225e-05 0 0 0
1325 9 -64.56732192355146 7.45560000000004 -5.7599016630737344e-05 0 0 0
1266 9 -61.34164315784672 5.579453642770801 -0.00842040473275877 0 0 0
1331 9 -58.10163875233772 7.485022981463283 -0.09131257787924216 0 0 0
1338 9 -48.36500611180879 9.269062524836439 -0.08250444852152733 0 0 0
672 6 -54.7983694173858 5.434302422118322 -5.8431511936141 0 0 0
674 4 -50.58820053395185 5.423207656643605 -4.6996281177708825 0 0 0
678 6 -48.417690229255406 5.521283962857617 -5.873321645605123 0 0 0
727 4 -53.74823464106448 7.310570593921386 -4.49220270580547 0 0 0
732 6 -54.842019472469865 9.145638018064936 -5.757785741597263 0 0 0
734 4 -50.491856546700006 9.141784324969352 -4.773320124428424 0 0 0
737 6 -51.720067334800184 7.291221872174158 -5.91130285610181 0 0 0
738 6 -48.39870978380055 9.217581445849861 -5.964181057403782 0 0 0
787 4 -53.79276341846569 11.061580159781712 -4.659622143251251 0 0 0
797 6 -51.6757277160889 11.043641622997521 -5.932497995365351 0 0 0
1270 8 -52.76718558111634 5.512337854691512 -1.411943727963845 0 0 0
1329 8 -56.02451856398946 7.479590830591179 -1.4023978716608791 0 0 0
1330 8 -52.67652160338254 9.380018576710121 -1.5133161327224414 0 0 0
1335 8 -49.45317906381278 7.4669164810794495 -1.4631757774739296 0 0 0
1389 8 -56.012601501890224 11.140182990402602 -1.372688806680223 0 0 0
1395 8 -49.48796103935491 11.170934353490455 -1.3387202190173093 0 0 0
1278 9 -48.429393461492616 5.648151204088424 -0.12337794000085509 0 0 0
1337 9 -51.64208898019002 7.414960118536495 -0.21181217784644288 0 0 0
1397 9 -51.61500041148932 11.26814093838761 -0.19708363996578138 0 0 0
1272 9 -54.89958603295567 5.5246982603787345 -0.20107007923694065 0 0 0
1332 9 -54.87587718453416 9.368723804508377 -0.14207829427959975 0 0 0
1451 9 -58.12928275618872 14.922369839387121 -0.045632956654377575 0 0 0
1445 9 -64.56732192355038 14.91120000000059 -5.759901163053131e-05 0 0 0
782 4 -63.491321557364394 13.047299999996923 -4.534524731947078 0 0 0
786 6 -61.34618970258699 13.020858347968053 -5.813704273231338 0 0 0
788 4 -56.958089548110244 13.071676540888872 -4.602446365413834 0 0 0
841 4 -60.26391322351232 14.90122368925635 -4.50372918357663 0 0 0
842 4 -63.491321557364124 16.775100000001736 -4.5345247319492135 0 0 0
845 6 -64.5672842643672 14.911199999998368 -5.773910553823589 0 0 0
846 6 -61.35585196305256 16.718016388231995 -5.773985482829794 0 0 0
848 4 -57.04632072145857 16.772561179345843 -4.725089384995816 0 0 0
851 6 -58.15383382192261 14.919061008552424 -5.806046129737887 0 0 0
1384 8 -59.219993631981524 12.977828509825393 -1.144526870941366 0 0 0
1443 8 -62.41550867734454 14.911199999999916 -1.2390509213229313 0 0 0
1444 8 -59.24573053126399 16.84298530932512 -1.2952742967625832 0 0 0
1457 9 -51.68669318003078 14.916948046169782 -0.07186182114708037 0 0 0
1392 9 -54.85284564304819 12.984244208803934 -0.1707150330227101 0 0 0
854 4 -50.50138400778399 16.777858336457044 -4.7446114781288635 0 0 0
1452 9 -54.80858229442365 16.789192935662143 -0.12402479504211847 0 0 0
1390 8 -52.699152056512425 13.076169691832446 -1.347404896763524 0 0 0
792 6 -54.845991406121435 13.042185700475079 -5.8544105974813645 0 0 0
1458 9 -48.45038660431472 16.72275678283687 -0.1676868418722184 0 0 0
1450 8 -52.6703307338293 16.724753945686995 -1.4863665666729096 0 0 0
1455 8 -49.484278280509066 14.815544504376273 -1.2659658116198378 0 0 0
847 4 -53.694437238120955 14.884574274860222 -4.642049752095182 0 0 0
857 6 -51.57530822756559 14.845488152071356 -5.908334450643136 0 0 0
858 6 -48.28874654722614 16.729249099448754 -6.017476753603336 0 0 0
798 6 -48.41002631878588 12.905127364368552 -5.8477381487255595 0 0 0
794 4 -50.587021408563125 12.879555212450244 -4.67416222305898 0 0 0
1449 8 -56.0054849322057 14.848272383645316 -1.3484109339700572 0 0 0
852 6 -54.86851043986783 16.80841324558296 -5.877359371592244 0 0 0
1201 7 -60.255773713288285 -0.03996721372377424 1.218304811586349 0 0 0
1202 7 -63.49129682196802 1.863899999998577 1.2392163506831708 0 0 0
1208 7 -57.010244523971515 1.8184570579780073 1.2338735226668056 0 0 0
1261 7 -60.295573400924404 3.780094994574511 1.2615765758438313 0 0 0
1803 11 -62.41562224250179 -1.5229013797370056e-12 4.534659689225803 0 0 0
1804 11 -59.11103281728756 1.8056350216695634 4.566562896394988 0 0 0
1805 12 -64.56732689964898 -4.192014730563953e-13 5.7738985517610955 0 0 0
1806 12 -61.32275094488418 1.866285285086056 5.783501902672704 0 0 0
1811 12 -58.09261689990113 -0.11953137896960968 5.80576785239867 0 0 0
1863 11 -62.41562224249841 3.727800000000982 4.534659689222639 0 0 0
1865 12 -64.56732689964694 3.7278000000004727 5.773898551759089 0 0 0
1871 12 -58.113726395590504 3.681577661581896 5.835085978871405 0 0 0
1206 9 -61.3480484003997 1.8832384725831257 0.0668830102412672 0 0 0
1207 7 -53.651817679817796 0.13385256360983183 1.0674210980182957 0 0 0
1214 7 -50.488230791261095 1.8926956127040766 1.2057041737013703 0 0 0
1267 7 -53.81695169538531 3.7053412074254584 1.1052911055874242 0 0 0
1809 11 -55.91952402898912 -0.042625954431623064 4.609452982306276 0 0 0
1810 11 -52.686321577385634 1.6909013846815104 4.614576185380131 0 0 0
1812 12 -54.854770287462166 1.8081085271257173 5.852903061974096 0 0 0
1815 11 -49.42836069892943 -0.16937224755155866 4.624307000455428 0 0 0
1817 12 -51.56219833109661 -0.04189482165046961 5.876032263801253 0 0 0
1818 12 -48.27620311500865 1.822736220519988 5.841956249884308 0 0 0
1869 11 -55.96606049105389 3.6660024471516155 4.630089878709977 0 0 0
1875 11 -49.424527918158496 3.666295170965185 4.669491153679547 0 0 0
1877 12 -51.58022976315243 3.644255127797368 5.849556916178648 0 0 0
1262 7 -63.49129682196754 5.591699999999061 1.2392163506821883 0 0 0
1268 7 -57.04539346159072 5.561895474180908 1.162401191503664 0 0 0
1321 7 -60.20649362178329 7.489216516144506 1.1084586781225105 0 0 0
1322 7 -63.491296821969854 9.319500000000302 1.2392163506788942 0 0 0
1328 7 -56.95946252347833 9.305361885512553 1.1716937109020455 0 0 0
1381 7 -60.21776649304709 11.201190212636604 1.292967973400726 0 0 0
1864 11 -59.05470097413007 5.540199446985287 4.502587239487645 0 0 0
1866 12 -61.29101349297972 5.602937218195336 5.709848849692732 0 0 0
1923 11 -62.41562224249719 7.455599999999231 4.5346596892224 0 0 0
1924 11 -59.10562885515052 9.286959462687864 4.662231635968762 0 0 0
1925 12 -64.5673268996475 7.455600000001295 5.7738985517561705 0 0 0
1926 12 -61.32662072818046 9.360831980615085 5.795657588381582 0 0 0
1931 12 -58.03608334013813 7.353747202158142 5.773307452427954 0 0 0
1983 11 -62.41562224249701 11.18340000000052 4.534659689223595 0 0 0
1985 12 -64.56732689964761 11.183399999998057 5.773898551758921 0 0 0
1991 12 -58.071888950209754 11.1433457933607 5.869056011916037 0 0 0
1391 9 -58.10553122395946 11.130854995261469 0.009184140496392396 0 0 0
1326 9 -61.3475709546094 9.35506679106461 0.018163478656708285 0 0 0
1274 7 -50.5130080228489 5.684151840537415 1.125967109695174 0 0 0
1327 7 -53.7818976620925 7.413641109399607 0.9912411535332659 0 0 0
1334 7 -50.56297099062786 9.394727260308557 1.0825164417110869 0 0 0
1387 7 -53.69394347367325 11.171647549656127 1.0899970810356943 0 0 0
1870 11 -52.77078037126116 5.390546410837076 4.531517657973062 0 0 0
1872 12 -54.928729470939075 5.493179320715478 5.854754076261691 0 0 0
1878 12 -48.33818460095355 5.487447151671859 5.890317545959063 0 0 0
1929 11 -55.871682195439966 7.391190277683054 4.534554006329558 0 0 0
1930 11 -52.71667828058401 9.153655034371377 4.610935525906465 0 0 0
1932 12 -54.8610994670087 9.235959237071592 5.88906892904253 0 0 0
1935 11 -49.42166179376307 7.343750127948527 4.559455800423216 0 0 0
1937 12 -51.60844377635368 7.302924667379756 5.789760962677119 0 0 0
1938 12 -48.37668256080074 9.265550099991193 5.8102640985764324 0 0 0
1989 11 -55.97104036347809 11.0603022473403 4.587000610110999 0 0 0
1995 11 -49.471132745238364 11.135852639510835 4.575747080616158 0 0 0
1997 12 -51.552841022477686 11.05390317730249 5.868626609975839 0 0 0
1386 9 -61.33504795465045 13.039532899617338 0.01747358713352024 0 0 0
1382 7 -63.491296821969456 13.047299999998334 1.2392163506832479 0 0 0
1388 7 -57.05484491455262 13.012248645205087 1.125265850750245 0 0 0
1441 7 -60.33557407589074 14.907347335564864 1.19701004829468 0 0 0
1442 7 -63.49129682196994 16.775100000002674 1.2392163506809954 0 0 0
1448 7 -56.95901826950741 16.745801430501757 1.0960354387228877 0 0 0
1984 11 -59.09628191505098 12.9389265480864 4.586959166476385 0 0 0
1986 12 -61.352498765486686 13.049455413589248 5.717114740215756 0 0 0
2043 11 -62.41562224249993 14.911199999999418 4.534659689225775 0 0 0
2044 11 -59.065831037123765 16.746356600728575 4.421212875734047 0 0 0
2045 12 -64.56732689964906 14.911199999999774 5.773898551761391 0 0 0
2046 12 -61.293259696756536 16.770339792967068 5.805954255219845 0 0 0
2051 12 -58.08183509672702 14.874974393479816 5.748075742722753 0 0 0
1446 9 -61.35823967014071 16.77282792356236 0.004289518721977246 0 0 0
1394 7 -50.572550311835 13.105635674563718 1.2019992197680782 0 0 0
1447 7 -53.8029832347258 14.88260281918 1.0932555035276534 0 0 0
1454 7 -50.52679813310547 16.778780278212086 1.0633279812876455 0 0 0
1990 11 -52.62230902008825 12.970003420925803 4.70281767669255 0 0 0
1992 12 -54.86554863530293 12.983473927271474 5.8851212752091415 0 0 0
1998 12 -48.3996770749277 13.000776374235413 5.744001476739599 0 0 0
2049 11 -55.96123339253065 14.757487308166803 4.509746608060139 0 0 0
2050 11 -52.746375893776786 16.77482736761933 4.402735569447077 0 0 0
2052 12 -54.8246396250222 16.718186139338748 5.724442297942733 0 0 0
2055 11 -49.40838079543015 14.849405151718665 4.447911621512517 0 0 0
2057 12 -51.51884001961862 14.875686409772534 5.74706448089256 0 0 0
2058 12 -48.3628772660716 16.771817204576298 5.740176499948175 0 0 0
1398 9 -48.37139831782315 13.033709123179149 0.020372084930472666 0 0 0
1808 10 -57.06115548537557 1.8196803000192032 7.148590044035576 0 0 0
1861 10 -60.248166726418575 3.6723872459172493 7.089873892442087 0 0 0
1801 10 -60.32795477260181 -0.023854532546319775 7.054871149365385 0 0 0
1802 10 -63.49128779115325 1.8638999999988715 7.013454258815952 0 0 0
2401 13 -60.28864415807405 -0.057806218923824176 12.852333070392945 0 0 0
2402 13 -63.4914745479961 1.8639000000009456 12.815472377916855 0 0 0
2403 14 -62.4160792633125 1.535206411916895e-12 10.335709756147628 0 0 0
2404 14 -59.18990401548447 1.8980008101968808 10.345950603163397 0 0 0
2405 15 -64.56732035005206 8.114106558074574e-14 11.575788722282043 0 0 0
2406 15 -61.30315080416592 1.824306646277037 11.63733116135516 0 0 0
2408 13 -57.00658906491462 1.8133897614777608 12.750035494951096 0 0 0
2411 15 -58.12934414994154 -0.018861924973975704 11.601899072056474 0 0 0
2461 13 -60.15365529102356 3.7621574952570467 12.786566413647169 0 0 0
2463 14 -62.41607926331319 3.7277999999986946 10.335709756148765 0 0 0
2465 15 -64.56732035005214 3.7277999999995184 11.575788722281324 0 0 0
2471 15 -58.1036900641148 3.7142123833887997 11.574870537774206 0 0 0
1867 10 -53.72289167415427 3.6126226265221537 7.087375791484621 0 0 0
1807 10 -53.7863286022262 -0.11625494860498412 7.053113441760905 0 0 0
1814 10 -50.473930003603044 1.7739522051562684 7.04041753865528 0 0 0
2407 13 -53.77800819939012 0.023564691032607638 12.851783184793208 0 0 0
2409 14 -56.03169760074095 -0.044330078919382294 10.320159007535956 0 0 0
2410 14 -52.76234700728066 1.77378287342507 10.322063695383742 0 0 0
2412 15 -54.916546526656205 1.8244709317749952 11.525930030477289 0 0 0
2414 13 -50.512610055596504 1.8233058001044506 12.748614469178614 0 0 0
2415 14 -49.53057465120434 -0.07567578452433549 10.23289569452203 0 0 0
2417 15 -51.68114796464673 -0.04674399971113486 11.532776241893123 0 0 0
2418 15 -48.41180952841893 1.812700844442683 11.382616492341597 0 0 0
2467 13 -53.79980988614529 3.6298909225456706 12.768806071248521 0 0 0
2469 14 -56.010659910940575 3.6274545589364897 10.228436223715434 0 0 0
2475 14 -49.603626363344006 3.660725767812549 10.290857588088656 0 0 0
2477 15 -51.67995668110081 3.6279867207193197 11.545745152595577 0 0 0
1928 10 -57.155676930467806 9.247071933889488 7.111269025686093 0 0 0
1868 10 -57.06977933091632 5.542272125506009 7.1089763668346935 0 0 0
1981 10 -60.271809301365494 11.194224371051195 7.013155531630508 0 0 0
1921 10 -60.220572319331254 7.445274375729486 6.974319039129803 0 0 0
1862 10 -63.49128779115199 5.591699999998592 7.013454258813666 0 0 0
1922 10 -63.49128779115103 9.31950000000035 7.0134542588132565 0 0 0
2462 13 -63.49147454799477 5.591699999997755 12.815472377914878 0 0 0
2464 14 -59.25046304808084 5.554496838581372 10.337218539005955 0 0 0
2466 15 -61.32532737203632 5.593777018928495 11.63207824064482 0 0 0
2468 13 -57.084776747881314 5.587675152670447 12.820452770949892 0 0 0
2521 13 -60.2712957372973 7.4876079475570245 12.837726260511719 0 0 0
2522 13 -63.49147454799672 9.319500000000438 12.815472377913702 0 0 0
2523 14 -62.416079263312035 7.455600000000113 10.335709756149114 0 0 0
2524 14 -59.25532719350689 9.172792764158046 10.262431718799306 0 0 0
2525 15 -64.56732035005241 7.455599999999134 11.575788722280445 0 0 0
2526 15 -61.36576776313173 9.31188609210861 11.597161224743287 0 0 0
2528 13 -57.12246445715344 9.333869691888 12.689296001683935 0 0 0
2531 15 -58.17851373044516 7.43171911409514 11.519765061925872 0 0 0
2581 13 -60.323111245674106 11.154006135031008 12.782405704046193 0 0 0
2583 14 -62.41607926331363 11.183399999999754 10.335709756147391 0 0 0
2585 15 -64.56732035005146 11.183400000000153 11.575788722280048 0 0 0
2591 15 -58.20387933329364 11.15402391297101 11.429316809906386 0 0 0
1934 10 -50.45111358421442 9.274535176378755 7.089160714628285 0 0 0
1874 10 -50.54766864913381 5.440549589905934 7.080987008101131 0 0 0
1927 10 -53.79557310563265 7.388655414809667 7.053301213548324 0 0 0
1987 10 -53.71415278675916 11.0560047152012 7.107344604954842 0 0 0
2595 14 -49.45283802805493 11.179132727054858 10.203294121171472 0 0 0
2589 14 -56.006758552987534 11.143198515980014 10.249092426099326 0 0 0
2587 13 -53.77103595003799 11.136812350086068 12.625192867283571 0 0 0
2538 15 -48.30253473236618 9.28136522786123 11.496572344661883 0 0 0
2537 15 -51.61421135383746 7.416939903413237 11.320900618445966 0 0 0
2597 15 -51.69299145932577 11.244231522886695 11.266536963419462 0 0 0
2470 14 -52.73951899514318 5.43533815898752 10.291367245868296 0 0 0
2472 15 -54.87480434766076 5.500662051560025 11.503448566656331 0 0 0
2474 13 -50.56132932274994 5.589871765055142 12.6082526980652 0 0 0
2478 15 -48.38081762652039 5.531218645256836 11.447583453003467 0 0 0
2527 13 -53.77026422611325 7.425031511301887 12.680865652342392 0 0 0
2529 14 -56.013881798529226 7.422428972907232 10.277493989655767 0 0 0
2530 14 -52.88717936157984 9.258035217800034 10.17323273670617 0 0 0
2532 15 -54.93698126186511 9.251458390620822 11.467295119824081 0 0 0
2534 13 -50.615250884825 9.335250781925728 12.544270339973448 0 0 0
2535 14 -49.373868306172284 7.456332880286036 10.214905155482695 0 0 0
2048 10 -56.98881738188481 16.73902493202338 7.0021153724823515 0 0 0
1988 10 -57.0561499280489 13.098700023116631 7.129712712116103 0 0 0
1982 10 -63.491287791153134 13.047299999999526 7.013454258816341 0 0 0
2642 13 -63.49147454799634 16.77510000000095 12.815472377913574 0 0 0
2042 10 -63.49128779115457 16.775100000001093 7.013454258815174 0 0 0
2041 10 -60.241180334130966 14.859890944429155 7.012841317338903 0 0 0
2588 13 -57.08263764860923 12.948031139499538 12.66921594686109 0 0 0
2582 13 -63.49147454799652 13.047300000000133 12.81547237791311 0 0 0
2651 15 -58.141915287301536 14.856368538273884 11.445285785631961 0 0 0
2648 13 -57.043067980410605 16.70895768309219 12.6656671743523 0 0 0
2646 15 -61.38162608583014 16.78264113765748 11.440500446240764 0 0 0
2641 13 -60.27111753393153 14.912743794023621 12.746291243447757 0 0 0
2586 15 -61.331519810252225 12.968933182785197 11.559593132669596 0 0 0
2645 15 -64.56732035005258 14.911200000000871 11.575788722279897 0 0 0
2584 14 -59.24578239292273 13.047786136462559 10.244356824360885 0 0 0
2644 14 -59.18521724318181 16.77993027633116 10.316362025981627 0 0 0
2643 14 -62.41607926331371 14.911200000001134 10.335709756147537 0 0 0
2650 14 -52.67608553826506 16.68696170116565 10.313362202569518 0 0 0
1994 10 -50.46302189200544 13.017286349521529 7.052453468819715 0 0 0
2649 14 -55.91462606786939 14.835250157001663 10.201911346742223 0 0 0
2647 13 -53.820896838119445 14.86711651147743 12.694465514466502 0 0 0
2652 15 -54.939955463674785 16.737132168836418 11.358505685808504 0 0 0
2658 15 -48.40393334234077 16.69526137964158 11.578389955529072 0 0 0
2594 13 -50.57594107294979 12.98645203050107 12.687945728074816 0 0 0
2047 10 -53.69208802318583 14.897072934073083 7.007950436583872 0 0 0
2054 10 -50.508890484469035 16.913975887860804 6.977782629311506 0 0 0
2657 15 -51.616308239185535 14.803023248860091 11.527368760535627 0 0 0
2598 15 -48.44110088958654 13.042752841696036 11.562609122016504 0 0 0
2654 13 -50.55922930419214 16.681616518286685 12.828457103808741 0 0 0
2590 14 -52.68105073393981 13.076202588429775 10.11930215420771 0 0 0
2655 14 -49.48632704254099 14.814156898774113 10.298166389476707 0 0 0
2592 15 -54.828897366709896 12.962073684378943 11.4725758151822 0 0 0
301 1 -60.15930395920881 18.60921029762354 -10.372831406742266 0 0 0
302 1 -63.491323580965165 20.502900000000444 -10.335620194900981 0 0 0
303 2 -62.41541902736011 18.639000000001083 -12.815003623483348 0 0 0
304 2 -59.234087237813945 20.364940678977828 -12.992086067442115 0 0 0
305 3 -64.56738081009505 18.638999999999484 -11.57581005846247 0 0 0
306 3 -61.3305335660545 20.45156065539274 -11.594313504707376 0 0 0
308 1 -57.01419227964824 20.388333155620362 -10.509386449057791 0 0 0
311 3 -58.09947761322435 18.59369978095486 -11.702262603872244 0 0 0
361 1 -60.26077507706708 22.32821585591252 -10.37532636867616 0 0 0
363 2 -62.41541902735882 22.366800000001128 -12.815003623482589 0 0 0
365 3 -64.56738081009635 22.36679999999996 -11.575810058463768 0 0 0
371 3 -58.13735635692198 22.26595167097265 -11.682087005088043 0 0 0
903 5 -62.41551465635639 18.639000000001563 -7.013184840621493 0 0 0
963 5 -62.415514656360095 22.366800000001906 -7.013184840618483 0 0 0
904 5 -59.30723518299021 20.427152179797698 -7.14024068550132 0 0 0
307 1 -53.81978219427146 18.564926156798908 -10.708041534098163 0 0 0
309 2 -56.02516979172248 18.580734207641786 -13.116172786298243 0 0 0
310 2 -52.71891904922665 20.43547389042467 -13.185323757467703 0 0 0
312 3 -54.91734489393169 20.507355939666862 -11.940789138669599 0 0 0
314 1 -50.605376990737355 20.458681750874234 -10.771922610999415 0 0 0